Job started on r040.ib.bridges2.psc.edu at Wed Nov 15 17:58:23 EST 2023
LAMMPS (29 Sep 2021 - Update 3)
OMP_NUM_THREADS environment is not set. Defaulting to 1 thread. (src/comm.cpp:98)
  using 1 OpenMP thread(s) per MPI task
Reading data file ...
  orthogonal box = (0.0000000 0.0000000 0.0000000) to (15.252734 15.252734 30.505468)
  1 by 1 by 1 MPI processor grid
  reading atoms ...
  432 atoms
Finding 1-2 1-3 1-4 neighbors ...
  special bond factors lj:    0        0        0       
  special bond factors coul:  0        0        0       
     0 = max # of 1-2 neighbors
     0 = max # of 1-3 neighbors
     0 = max # of 1-4 neighbors
     1 = max # of special neighbors
  special bonds CPU = 0.001 seconds
  read_data CPU = 0.010 seconds
Neighbor list info ...
  update every 1 steps, delay 10 steps, check yes
  max neighbors/atom: 2000, page size: 100000
  master list distance cutoff = 6.22
  ghost atom cutoff = 6.22
  binsize = 3.11, bins = 5 5 10
  1 neighbor lists, perpetual/occasional/extra = 1 0 0
  (1) pair quip, perpetual
      attributes: full, newton on
      pair build: full/bin
      stencil: full/bin/3d
      bin: standard
Setting up Verlet run ...
  Unit style    : metal
  Current step  : 0
  Time step     : 0.001
Per MPI rank memory allocation (min/avg/max) = 8.612 | 8.612 | 8.612 Mbytes
Step Temp E_pair E_mol TotEng Press Volume 
       0          300   -3150.1674            0    -3133.454   -87577.449    7096.9719 
       1     299.2583    -3150.126            0    -3133.454   -87494.152    7096.9719 
       2    297.04727   -3150.0027            0   -3133.4538   -87245.846    7096.9719 
       3    293.40746   -3149.7997            0   -3133.4536   -86837.309    7096.9719 
       4    288.40404   -3149.5206            0   -3133.4533     -86276.3    7096.9719 
       5     282.1266   -3149.1706            0    -3133.453   -85573.155    7096.9719 
       6    274.68872   -3148.7557            0   -3133.4525    -84740.29    7096.9719 
       7    266.22681   -3148.2838            0    -3133.452    -83791.44    7096.9719 
       8    256.89836   -3147.7635            0   -3133.4514   -82741.536    7096.9719 
       9    246.87965   -3147.2047            0   -3133.4508   -81606.324    7096.9719 
      10    236.36164   -3146.6181            0   -3133.4501   -80403.586    7096.9719 
      11    225.54451   -3146.0147            0   -3133.4494   -79146.581    7096.9719 
      12    214.63297   -3145.4061            0   -3133.4487   -77854.645    7096.9719 
      13    203.83324   -3144.8038            0    -3133.448   -76546.427    7096.9719 
      14    193.34752   -3144.2189            0   -3133.4473   -75235.806    7096.9719 
      15    183.36557   -3143.6623            0   -3133.4468   -73939.815    7096.9719 
      16    174.05948   -3143.1433            0   -3133.4462   -72676.996    7096.9719 
      17    165.58145   -3142.6705            0   -3133.4458   -71461.815    7096.9719 
      18    158.06043   -3142.2512            0   -3133.4454   -70303.947    7096.9719 
      19    151.59749   -3141.8909            0   -3133.4452     -69218.2    7096.9719 
      20    146.26238   -3141.5935            0   -3133.4451   -68215.562    7096.9719 
      21    142.09272   -3141.3612            0   -3133.4451    -67303.08    7096.9719 
      22    139.09382   -3141.1943            0   -3133.4452   -66484.884    7096.9719 
      23    137.23888   -3141.0911            0   -3133.4454   -65760.628    7096.9719 
      24    136.47032   -3141.0486            0   -3133.4457   -65131.872    7096.9719 
      25     136.7024   -3141.0619            0   -3133.4461   -64594.986    7096.9719 
      26    137.82454   -3141.1249            0   -3133.4466    -64145.34    7096.9719 
      27    139.70522   -3141.2302            0   -3133.4471   -63777.031    7096.9719 
      28    142.19711   -3141.3696            0   -3133.4476   -63480.366    7096.9719 
      29    145.14271   -3141.5343            0   -3133.4482   -63248.934    7096.9719 
      30     148.3801   -3141.7152            0   -3133.4488   -63070.392    7096.9719 
      31    151.74832   -3141.9034            0   -3133.4493   -62934.182    7096.9719 
      32    155.09248   -3142.0902            0   -3133.4498   -62829.165    7096.9719 
      33    158.26788   -3142.2676            0   -3133.4503   -62748.182    7096.9719 
      34    161.14382   -3142.4282            0   -3133.4507   -62678.395    7096.9719 
      35    163.60892   -3142.5658            0    -3133.451   -62607.416    7096.9719 
      36    165.57416   -3142.6755            0   -3133.4512   -62526.393    7096.9719 
      37    166.97509   -3142.7537            0   -3133.4513   -62425.812    7096.9719 
      38    167.77156   -3142.7982            0   -3133.4514   -62303.366    7096.9719 
      39    167.94648   -3142.8079            0   -3133.4514   -62153.944    7096.9719 
      40    167.50638   -3142.7833            0   -3133.4513   -61979.118    7096.9719 
      41    166.47889   -3142.7259            0   -3133.4511   -61771.837    7096.9719 
      42    164.91109   -3142.6383            0   -3133.4509   -61530.481    7096.9719 
      43    162.86655   -3142.5241            0   -3133.4507   -61259.115    7096.9719 
      44    160.42203   -3142.3876            0   -3133.4504   -60954.309    7096.9719 
      45    157.66371   -3142.2337            0     -3133.45    -60620.57    7096.9719 
      46    154.68289   -3142.0673            0   -3133.4497   -60258.744    7096.9719 
      47    151.57296   -3141.8937            0   -3133.4494   -59869.827    7096.9719 
      48    148.42503    -3141.718            0   -3133.4491   -59460.936    7096.9719 
      49    145.32489   -3141.5451            0   -3133.4488   -59036.516    7096.9719 
      50    142.35048   -3141.3791            0   -3133.4486   -58597.463    7096.9719 
      51    139.56844    -3141.224            0   -3133.4484   -58149.344    7096.9719 
      52    137.03178   -3141.0825            0   -3133.4483   -57696.332    7096.9719 
      53    134.77908   -3140.9569            0   -3133.4482   -57240.671    7096.9719 
      54    132.83363   -3140.8485            0   -3133.4482   -56784.284    7096.9719 
      55    131.20291   -3140.7577            0   -3133.4483   -56330.571    7096.9719 
      56    129.87919    -3140.684            0   -3133.4483   -55884.013    7096.9719 
      57    128.84166   -3140.6264            0   -3133.4485    -55438.92    7096.9719 
      58    128.05668   -3140.5828            0   -3133.4486   -55000.536    7096.9719 
      59     127.4793   -3140.5508            0   -3133.4488   -54569.083    7096.9719 
      60    127.05748   -3140.5275            0    -3133.449   -54141.729    7096.9719 
      61    126.73506   -3140.5098            0   -3133.4492    -53718.72    7096.9719 
      62     126.4532   -3140.4943            0   -3133.4494   -53303.863    7096.9719 
      63    126.15374   -3140.4778            0   -3133.4496   -52897.094    7096.9719 
      64    125.78382   -3140.4574            0   -3133.4498   -52492.297    7096.9719 
      65    125.29833   -3140.4304            0   -3133.4499   -52090.118    7096.9719 
      66    124.66144    -3140.395            0     -3133.45   -51691.127    7096.9719 
      67    123.84818   -3140.3498            0   -3133.4501   -51294.825    7096.9719 
      68    122.84522   -3140.2939            0   -3133.4501   -50911.126    7096.9719 
      69    121.65212   -3140.2274            0     -3133.45   -50540.447    7096.9719 
      70    120.28295    -3140.151            0   -3133.4499   -50177.705    7096.9719 
      71    118.76499   -3140.0663            0   -3133.4498   -49826.295    7096.9719 
      72    117.13739   -3139.9755            0   -3133.4496   -49491.753    7096.9719 
      73    115.44969   -3139.8813            0   -3133.4494   -49179.829    7096.9719 
      74    113.75983   -3139.7869            0   -3133.4492     -48894.1    7096.9719 
      75    112.13129   -3139.6959            0    -3133.449   -48639.006    7096.9719 
      76    110.62952    -3139.612            0   -3133.4487   -48416.323    7096.9719 
      77    109.32081   -3139.5389            0   -3133.4485    -48232.55    7096.9719 
      78    108.26975   -3139.4801            0   -3133.4483   -48091.737    7096.9719 
      79    107.53613   -3139.4391            0   -3133.4481   -47996.047    7096.9719 
      80    107.17277   -3139.4187            0    -3133.448   -47944.016    7096.9719 
      81    107.22325   -3139.4214            0   -3133.4478   -47934.826    7096.9719 
      82    107.71899   -3139.4489            0   -3133.4478   -47970.198    7096.9719 
      83    108.67915   -3139.5024            0   -3133.4477   -48054.873    7096.9719 
      84    110.11119   -3139.5822            0   -3133.4478   -48187.276    7096.9719 
      85    112.00955    -3139.688            0   -3133.4478   -48366.745    7096.9719 
      86    114.35679   -3139.8189            0   -3133.4479   -48589.134    7096.9719 
      87    117.12372   -3139.9731            0   -3133.4481   -48850.558    7096.9719 
      88    120.26973   -3140.1486            0   -3133.4482   -49149.727    7096.9719 
      89    123.74516   -3140.3424            0   -3133.4484   -49483.132    7096.9719 
      90    127.49302   -3140.5514            0   -3133.4486   -49846.157    7096.9719 
      91    131.45096   -3140.7721            0   -3133.4489    -50231.97    7096.9719 
      92    135.55187   -3141.0008            0   -3133.4491   -50632.432    7096.9719 
      93    139.72559   -3141.2336            0   -3133.4493   -51043.645    7096.9719 
      94     143.9017   -3141.4665            0   -3133.4496    -51460.67    7096.9719 
      95    148.01105   -3141.6956            0   -3133.4498   -51880.678    7096.9719 
      96    151.98782   -3141.9174            0     -3133.45   -52298.437    7096.9719 
      97    155.77072   -3142.1283            0   -3133.4502   -52709.191    7096.9719 
      98    159.30431   -3142.3254            0   -3133.4503   -53112.601    7096.9719 
      99    162.54062   -3142.5058            0   -3133.4505   -53503.638    7096.9719 
     100    165.43876   -3142.6674            0   -3133.4506   -53880.337    7096.9719 
     101    167.96604   -3142.8082            0   -3133.4506   -54233.944    7096.9719 
     102    170.09913   -3142.9271            0   -3133.4507   -54558.648    7096.9719 
     103    171.82203   -3143.0231            0   -3133.4507   -54853.724    7096.9719 
     104    173.12663   -3143.0958            0   -3133.4507   -55120.161    7096.9719 
     105    174.01428   -3143.1452            0   -3133.4507   -55355.575    7096.9719 
     106    174.49472   -3143.1719            0   -3133.4506   -55558.501    7096.9719 
     107    174.58438   -3143.1768            0   -3133.4505   -55726.811    7096.9719 
     108    174.30553   -3143.1612            0   -3133.4504    -55865.28    7096.9719 
     109    173.68671   -3143.1266            0   -3133.4503   -55976.836    7096.9719 
     110    172.76146   -3143.0749            0   -3133.4502   -56059.436    7096.9719 
     111    171.56738   -3143.0082            0     -3133.45   -56118.057    7096.9719 
     112    170.14515   -3142.9289            0   -3133.4499   -56155.336    7096.9719 
     113    168.53719   -3142.8391            0   -3133.4497   -56177.671    7096.9719 
     114    166.78791   -3142.7415            0   -3133.4496   -56189.802    7096.9719 
     115    164.94306   -3142.6386            0   -3133.4494   -56193.131    7096.9719 
     116    163.04771   -3142.5328            0   -3133.4493   -56187.217    7096.9719 
     117    161.14541   -3142.4267            0   -3133.4491   -56179.106    7096.9719 
     118    159.27693   -3142.3225            0    -3133.449    -56170.49    7096.9719 
     119    157.47943   -3142.2222            0   -3133.4489   -56161.904    7096.9719 
     120    155.78639   -3142.1278            0   -3133.4488   -56159.837    7096.9719 
     121    154.22713   -3142.0408            0   -3133.4487   -56168.012    7096.9719 
     122    152.82681   -3141.9628            0   -3133.4486   -56189.705    7096.9719 
     123    151.60487   -3141.8946            0   -3133.4486   -56224.709    7096.9719 
     124    150.57448   -3141.8372            0   -3133.4485   -56275.555    7096.9719 
     125    149.74376   -3141.7909            0   -3133.4485   -56341.591    7096.9719 
     126    149.11599    -3141.756            0   -3133.4485   -56424.355    7096.9719 
     127    148.68945   -3141.7322            0   -3133.4485   -56526.083    7096.9719 
     128    148.45816   -3141.7194            0   -3133.4486   -56646.628    7096.9719 
     129    148.41222   -3141.7168            0   -3133.4486   -56788.053    7096.9719 
     130    148.53824   -3141.7239            0   -3133.4487   -56947.319    7096.9719 
     131    148.82065   -3141.7397            0   -3133.4487   -57119.483    7096.9719 
     132    149.24188   -3141.7632            0   -3133.4488   -57302.767    7096.9719 
     133    149.78191   -3141.7934            0   -3133.4489    -57492.63    7096.9719 
     134    150.42011    -3141.829            0   -3133.4489   -57688.351    7096.9719 
     135    151.13558   -3141.8689            0    -3133.449   -57892.493    7096.9719 
     136     151.9064    -3141.912            0   -3133.4491   -58101.265    7096.9719 
     137    152.71017   -3141.9568            0   -3133.4492   -58311.835    7096.9719 
     138    153.52433   -3142.0022            0   -3133.4492   -58521.913    7096.9719 
     139    154.32747   -3142.0471            0   -3133.4493   -58732.598    7096.9719 
     140    155.10025   -3142.0902            0   -3133.4494   -58942.251    7096.9719 
     141    155.82635   -3142.1307            0   -3133.4494    -59150.28    7096.9719 
     142    156.49246   -3142.1678            0   -3133.4494   -59354.104    7096.9719 
     143    157.08746    -3142.201            0   -3133.4494   -59553.572    7096.9719 
     144     157.6028   -3142.2297            0   -3133.4495   -59746.604    7096.9719 
     145    158.03314   -3142.2537            0   -3133.4495   -59935.665    7096.9719 
     146    158.37604   -3142.2728            0   -3133.4495   -60115.361    7096.9719 
     147    158.63114    -3142.287            0   -3133.4495   -60283.582    7096.9719 
     148    158.80115   -3142.2964            0   -3133.4494   -60443.177    7096.9719 
     149    158.89173   -3142.3015            0   -3133.4494   -60595.074    7096.9719 
     150    158.91095   -3142.3025            0   -3133.4494    -60740.72    7096.9719 
     151    158.86942   -3142.3001            0   -3133.4493   -60880.238    7096.9719 
     152    158.77975   -3142.2951            0   -3133.4493   -61013.324    7096.9719 
     153    158.65624   -3142.2881            0   -3133.4492   -61145.236    7096.9719 
     154    158.51433   -3142.2802            0   -3133.4492   -61277.253    7096.9719 
     155    158.37041   -3142.2721            0   -3133.4491   -61409.365    7096.9719 
     156    158.24158   -3142.2649            0    -3133.449   -61542.993    7096.9719 
     157    158.14468   -3142.2594            0    -3133.449   -61677.223    7096.9719 
     158    158.09592   -3142.2566            0   -3133.4489   -61811.169    7096.9719 
     159    158.11057   -3142.2574            0   -3133.4489   -61947.636    7096.9719 
     160    158.20334   -3142.2625            0   -3133.4488   -62088.579    7096.9719 
     161    158.38772   -3142.2727            0   -3133.4488   -62233.058    7096.9719 
     162    158.67532   -3142.2887            0   -3133.4488   -62384.878    7096.9719 
     163    159.07475    -3142.311            0   -3133.4487   -62544.651    7096.9719 
     164    159.59118   -3142.3397            0   -3133.4487   -62710.294    7096.9719 
     165    160.22638   -3142.3751            0   -3133.4487   -62880.004    7096.9719 
     166    160.97866   -3142.4171            0   -3133.4488   -63054.692    7096.9719 
     167    161.84351   -3142.4653            0   -3133.4488   -63234.406    7096.9719 
     168    162.81335   -3142.5193            0   -3133.4488   -63418.599    7096.9719 
     169    163.87735   -3142.5787            0   -3133.4489   -63606.636    7096.9719 
     170    165.02164   -3142.6425            0   -3133.4489   -63796.994    7096.9719 
     171    166.22966   -3142.7098            0    -3133.449    -63989.68    7096.9719 
     172    167.48251   -3142.7797            0   -3133.4491   -64184.604    7096.9719 
     173    168.75857   -3142.8509            0   -3133.4491   -64380.978    7096.9719 
     174    170.03503   -3142.9221            0   -3133.4492   -64575.633    7096.9719 
     175    171.28885    -3142.992            0   -3133.4493   -64767.284    7096.9719 
     176    172.49683   -3143.0594            0   -3133.4494   -64955.091    7096.9719 
     177    173.63681   -3143.1229            0   -3133.4494   -65138.064    7096.9719 
     178    174.68856   -3143.1816            0   -3133.4495   -65314.696    7096.9719 
     179    175.63409   -3143.2343            0   -3133.4496   -65485.272    7096.9719 
     180    176.45854   -3143.2803            0   -3133.4496   -65645.207    7096.9719 
     181    177.15114   -3143.3189            0   -3133.4496   -65791.514    7096.9719 
     182    177.70579   -3143.3498            0   -3133.4496    -65924.65    7096.9719 
     183    178.12139    -3143.373            0   -3133.4496   -66049.929    7096.9719 
     184     178.4009   -3143.3885            0   -3133.4496   -66164.735    7096.9719 
     185    178.55111   -3143.3968            0   -3133.4496   -66268.148    7096.9719 
     186    178.58269   -3143.3985            0   -3133.4495   -66359.456    7096.9719 
     187    178.50972   -3143.3944            0   -3133.4494   -66440.086    7096.9719 
     188    178.34983   -3143.3854            0   -3133.4494   -66508.183    7096.9719 
     189    178.12309   -3143.3727            0   -3133.4493    -66566.29    7096.9719 
     190    177.85086   -3143.3575            0   -3133.4492   -66614.015    7096.9719 
     191    177.55464   -3143.3409            0   -3133.4491   -66653.912    7096.9719 
     192    177.25507   -3143.3241            0   -3133.4491   -66690.388    7096.9719 
     193     176.9719   -3143.3083            0    -3133.449   -66722.862    7096.9719 
     194     176.7237   -3143.2944            0   -3133.4489   -66750.695    7096.9719 
     195     176.5268   -3143.2834            0   -3133.4489   -66773.401    7096.9719 
     196    176.39424    -3143.276            0   -3133.4489   -66792.213    7096.9719 
     197    176.33573   -3143.2727            0   -3133.4488   -66808.057    7096.9719 
     198    176.35733   -3143.2739            0   -3133.4488   -66823.135    7096.9719 
     199    176.46228   -3143.2797            0   -3133.4488   -66835.387    7096.9719 
     200    176.65229   -3143.2903            0   -3133.4488   -66847.419    7096.9719 
     201    176.92679   -3143.3056            0   -3133.4489   -66858.137    7096.9719 
     202    177.28323   -3143.3255            0   -3133.4489   -66865.756    7096.9719 
     203    177.71715   -3143.3497            0   -3133.4489   -66871.718    7096.9719 
     204    178.22177   -3143.3779            0   -3133.4489   -66874.089    7096.9719 
     205     178.7881   -3143.4095            0    -3133.449   -66870.885    7096.9719 
     206    179.40527   -3143.4439            0    -3133.449   -66862.563    7096.9719 
     207    180.06046   -3143.4804            0   -3133.4491   -66848.286    7096.9719 
     208     180.7388   -3143.5183            0   -3133.4491   -66827.581    7096.9719 
     209    181.42335   -3143.5565            0   -3133.4492   -66797.028    7096.9719 
     210    182.09541    -3143.594            0   -3133.4493    -66755.06    7096.9719 
     211    182.73468   -3143.6297            0   -3133.4494   -66700.949    7096.9719 
     212    183.31921   -3143.6624            0   -3133.4494   -66633.839    7096.9719 
     213    183.82569   -3143.6907            0   -3133.4495   -66554.605    7096.9719 
     214    184.23053   -3143.7133            0   -3133.4496    -66458.84    7096.9719 
     215    184.51041    -3143.729            0   -3133.4497   -66345.774    7096.9719 
     216    184.64289   -3143.7364            0   -3133.4498   -66214.643    7096.9719 
     217    184.60723   -3143.7345            0   -3133.4499   -66064.509    7096.9719 
     218    184.38501   -3143.7222            0   -3133.4499   -65896.105    7096.9719 
     219    183.96165   -3143.6987            0     -3133.45   -65706.366    7096.9719 
     220    183.32694   -3143.6633            0     -3133.45   -65497.877    7096.9719 
     221     182.4744   -3143.6159            0     -3133.45   -65272.362    7096.9719 
     222    181.40221   -3143.5561            0     -3133.45   -65029.086    7096.9719 
     223     180.1154   -3143.4844            0   -3133.4499   -64769.927    7096.9719 
     224    178.62577   -3143.4013            0   -3133.4499   -64495.242    7096.9719 
     225     176.9504   -3143.3079            0   -3133.4498   -64210.445    7096.9719 
     226    175.11156   -3143.2054            0   -3133.4497   -63912.413    7096.9719 
     227    173.13641   -3143.0953            0   -3133.4496    -63601.54    7096.9719 
     228     171.0552   -3142.9792            0   -3133.4495   -63281.334    7096.9719 
     229    168.90056   -3142.8591            0   -3133.4494   -62955.006    7096.9719 
     230    166.70629   -3142.7367            0   -3133.4493   -62622.488    7096.9719 
     231    164.50597    -3142.614            0   -3133.4492   -62286.759    7096.9719 
     232     162.3329   -3142.4928            0   -3133.4491   -61950.442    7096.9719 
     233    160.21863   -3142.3749            0    -3133.449   -61616.604    7096.9719 
     234    158.19197   -3142.2619            0   -3133.4489    -61287.38    7096.9719 
     235    156.27808   -3142.1553            0   -3133.4488   -60964.477    7096.9719 
     236    154.49763    -3142.056            0   -3133.4488    -60651.16    7096.9719 
     237    152.86644   -3141.9651            0   -3133.4487   -60349.787    7096.9719 
     238    151.39549   -3141.8831            0   -3133.4487   -60059.782    7096.9719 
     239     150.0911   -3141.8105            0   -3133.4487   -59778.978    7096.9719 
     240    148.95579   -3141.7472            0   -3133.4487   -59509.079    7096.9719 
     241    147.98828   -3141.6933            0   -3133.4487   -59254.047    7096.9719 
     242    147.18363   -3141.6485            0   -3133.4488   -59011.944    7096.9719 
     243    146.53381   -3141.6124            0   -3133.4488   -58782.619    7096.9719 
     244    146.02703   -3141.5842            0   -3133.4489   -58567.298    7096.9719 
     245    145.64893   -3141.5632            0   -3133.4489   -58363.758    7096.9719 
     246    145.38393   -3141.5485            0    -3133.449   -58172.627    7096.9719 
     247    145.21502   -3141.5392            0   -3133.4491   -57989.868    7096.9719 
     248    145.12437   -3141.5342            0   -3133.4491   -57813.995    7096.9719 
     249     145.0929   -3141.5325            0   -3133.4492   -57645.015    7096.9719 
     250    145.10071    -3141.533            0   -3133.4493   -57482.391    7096.9719 
     251    145.12961   -3141.5347            0   -3133.4493    -57322.95    7096.9719 
     252    145.16344   -3141.5366            0   -3133.4494   -57169.311    7096.9719 
     253    145.18758    -3141.538            0   -3133.4494   -57021.943    7096.9719 
     254    145.18896   -3141.5381            0   -3133.4495   -56878.289    7096.9719 
     255    145.15627   -3141.5363            0   -3133.4495   -56736.577    7096.9719 
     256    145.08013   -3141.5321            0   -3133.4495   -56597.693    7096.9719 
     257    144.95334   -3141.5251            0   -3133.4495   -56462.324    7096.9719 
     258    144.77078   -3141.5149            0   -3133.4495   -56333.427    7096.9719 
     259    144.52971   -3141.5015            0   -3133.4495   -56209.203    7096.9719 
     260    144.23072   -3141.4848            0   -3133.4495   -56088.279    7096.9719 
     261    143.87654   -3141.4651            0   -3133.4495   -55971.533    7096.9719 
     262    143.47106   -3141.4424            0   -3133.4495    -55858.11    7096.9719 
     263      143.021   -3141.4173            0   -3133.4495   -55747.792    7096.9719 
     264    142.53634   -3141.3903            0   -3133.4494   -55639.763    7096.9719 
     265     142.0282    -3141.362            0   -3133.4494   -55537.852    7096.9719 
     266    141.50897    -3141.333            0   -3133.4494   -55442.496    7096.9719 
     267    140.99323   -3141.3042            0   -3133.4493   -55354.954    7096.9719 
     268    140.49707   -3141.2765            0   -3133.4492    -55273.27    7096.9719 
     269    140.03812   -3141.2509            0   -3133.4492   -55199.925    7096.9719 
     270    139.63569   -3141.2284            0   -3133.4491   -55140.525    7096.9719 
     271    139.31018   -3141.2102            0    -3133.449   -55092.125    7096.9719 
     272    139.08211   -3141.1974            0    -3133.449   -55052.446    7096.9719 
     273    138.97133   -3141.1911            0   -3133.4489   -55025.761    7096.9719 
     274    138.99681   -3141.1925            0   -3133.4488   -55016.354    7096.9719 
     275    139.17441   -3141.2024            0   -3133.4488   -55023.706    7096.9719 
     276    139.51546   -3141.2213            0   -3133.4488   -55045.446    7096.9719 
     277    140.02695   -3141.2498            0   -3133.4488   -55084.067    7096.9719 
     278    140.71084   -3141.2879            0   -3133.4488   -55139.634    7096.9719 
     279     141.5634   -3141.3355            0   -3133.4488   -55208.802    7096.9719 
     280    142.57486   -3141.3919            0   -3133.4489   -55290.904    7096.9719 
     281    143.72951   -3141.4563            0   -3133.4489   -55385.295    7096.9719 
     282    145.00636   -3141.5275            0    -3133.449   -55491.185    7096.9719 
     283    146.38033   -3141.6041            0   -3133.4491   -55606.154    7096.9719 
     284      147.824   -3141.6847            0   -3133.4492   -55724.369    7096.9719 
     285    149.30764   -3141.7674            0   -3133.4493   -55846.883    7096.9719 
     286    150.79915   -3141.8506            0   -3133.4494    -55970.06    7096.9719 
     287    152.26668   -3141.9325            0   -3133.4495   -56092.234    7096.9719 
     288    153.67936   -3142.0113            0   -3133.4496   -56212.084    7096.9719 
     289    155.00913   -3142.0854            0   -3133.4497   -56325.638    7096.9719 
     290     156.2322   -3142.1537            0   -3133.4498   -56429.334    7096.9719 
     291    157.32771   -3142.2147            0   -3133.4498   -56523.843    7096.9719 
     292    158.27797   -3142.2677            0   -3133.4499    -56608.91    7096.9719 
     293    159.06943   -3142.3118            0   -3133.4499   -56683.615    7096.9719 
     294    159.69248   -3142.3466            0   -3133.4499   -56746.064    7096.9719 
     295    160.14185   -3142.3716            0   -3133.4499   -56797.839    7096.9719 
     296    160.41768    -3142.387            0   -3133.4499   -56840.862    7096.9719 
     297    160.52424   -3142.3929            0   -3133.4499   -56873.965    7096.9719 
     298    160.46957   -3142.3898            0   -3133.4498   -56896.942    7096.9719 
     299    160.26672   -3142.3784            0   -3133.4498   -56909.381    7096.9719 
     300    159.93204   -3142.3597            0   -3133.4497   -56914.554    7096.9719 
     301    159.48464   -3142.3347            0   -3133.4496   -56915.218    7096.9719 
     302    158.94669   -3142.3046            0   -3133.4495   -56917.112    7096.9719 
     303    158.34252   -3142.2709            0   -3133.4495    -56916.43    7096.9719 
     304    157.69782   -3142.2349            0   -3133.4494   -56916.031    7096.9719 
     305     157.0391   -3142.1981            0   -3133.4493   -56916.141    7096.9719 
     306    156.39376    -3142.162            0   -3133.4492   -56920.175    7096.9719 
     307    155.78915   -3142.1283            0   -3133.4491   -56930.058    7096.9719 
     308    155.25201   -3142.0982            0    -3133.449   -56946.057    7096.9719 
     309    154.80751   -3142.0734            0   -3133.4489   -56969.836    7096.9719 
     310     154.4774    -3142.055            0   -3133.4488   -57003.639    7096.9719 
     311    154.27997   -3142.0439            0   -3133.4488   -57047.099    7096.9719 
     312    154.23015   -3142.0411            0   -3133.4488   -57102.305    7096.9719 
     313    154.33887   -3142.0471            0   -3133.4487   -57170.899    7096.9719 
     314    154.61221   -3142.0623            0   -3133.4487   -57248.732    7096.9719 
     315    155.05069   -3142.0868            0   -3133.4487   -57336.712    7096.9719 
     316    155.64892   -3142.1202            0   -3133.4488   -57434.771    7096.9719 
     317    156.39582   -3142.1618            0   -3133.4488   -57544.952    7096.9719 
     318    157.27541   -3142.2109            0   -3133.4489   -57664.593    7096.9719 
     319    158.26735   -3142.2662            0    -3133.449   -57796.252    7096.9719 
     320    159.34784   -3142.3265            0   -3133.4491   -57934.285    7096.9719 
     321    160.48993   -3142.3903            0   -3133.4492   -58080.107    7096.9719 
     322    161.66324   -3142.4557            0   -3133.4493    -58232.76    7096.9719 
     323    162.83528   -3142.5212            0   -3133.4494   -58385.781    7096.9719 
     324    163.97242   -3142.5846            0   -3133.4495   -58536.682    7096.9719 
     325    165.04126   -3142.6443            0   -3133.4496   -58688.449    7096.9719 
     326    166.00946   -3142.6983            0   -3133.4498   -58835.193    7096.9719 
     327    166.84613    -3142.745            0   -3133.4499   -58974.483    7096.9719 
     328     167.5247   -3142.7829            0   -3133.4499   -59105.223    7096.9719 
     329    168.02463   -3142.8108            0     -3133.45   -59223.579    7096.9719 
     330    168.33162   -3142.8279            0     -3133.45   -59331.048    7096.9719 
     331    168.43826   -3142.8339            0     -3133.45   -59425.972    7096.9719 
     332    168.34427   -3142.8286            0     -3133.45   -59506.813    7096.9719 
     333    168.05526   -3142.8125            0   -3133.4499   -59576.284    7096.9719 
     334    167.58321   -3142.7861            0   -3133.4499   -59637.575    7096.9719 
     335    166.94679   -3142.7506            0   -3133.4498   -59688.909    7096.9719 
     336    166.16936   -3142.7072            0   -3133.4497   -59727.326    7096.9719 
     337    165.27901   -3142.6574            0   -3133.4496   -59753.479    7096.9719 
     338    164.30794   -3142.6032            0   -3133.4494   -59769.705    7096.9719 
     339     163.2902   -3142.5464            0   -3133.4493   -59774.859    7096.9719 
     340    162.26004   -3142.4889            0   -3133.4492   -59769.385    7096.9719 
     341    161.25061   -3142.4326            0   -3133.4491    -59759.53    7096.9719 
     342    160.29306   -3142.3791            0    -3133.449   -59750.131    7096.9719 
     343    159.41635   -3142.3302            0   -3133.4489   -59743.887    7096.9719 
     344    158.64558   -3142.2872            0   -3133.4488   -59738.729    7096.9719 
     345     158.0007   -3142.2512            0   -3133.4488   -59734.483    7096.9719 
     346    157.49648   -3142.2231            0   -3133.4488   -59733.681    7096.9719 
     347    157.14194   -3142.2033            0   -3133.4487   -59736.853    7096.9719 
     348    156.93951    -3142.192            0   -3133.4488   -59745.064    7096.9719 
     349    156.88539    -3142.189            0   -3133.4488   -59759.689    7096.9719 
     350    156.97059   -3142.1938            0   -3133.4488   -59784.746    7096.9719 
     351    157.18138   -3142.2056            0   -3133.4489    -59818.44    7096.9719 
     352    157.50014   -3142.2235            0    -3133.449     -59858.4    7096.9719 
     353    157.90528   -3142.2461            0    -3133.449   -59906.535    7096.9719 
     354    158.37171   -3142.2722            0   -3133.4491   -59959.148    7096.9719 
     355    158.87333   -3142.3002            0   -3133.4492   -60014.349    7096.9719 
     356    159.38374   -3142.3288            0   -3133.4493   -60074.032    7096.9719 
     357    159.87612   -3142.3563            0   -3133.4494   -60136.178    7096.9719 
     358    160.32491   -3142.3814            0   -3133.4495   -60199.847    7096.9719 
     359    160.70704   -3142.4027            0   -3133.4495   -60262.579    7096.9719 
     360    161.00343   -3142.4193            0   -3133.4496    -60326.94    7096.9719 
     361    161.19892   -3142.4302            0   -3133.4496   -60391.366    7096.9719 
     362    161.28275   -3142.4349            0   -3133.4496   -60453.639    7096.9719 
     363    161.25014   -3142.4331            0   -3133.4496   -60513.777    7096.9719 
     364    161.10191   -3142.4248            0   -3133.4496   -60574.592    7096.9719 
     365     160.8438   -3142.4104            0   -3133.4496   -60633.046    7096.9719 
     366    160.48681   -3142.3904            0   -3133.4495   -60688.019    7096.9719 
     367     160.0468   -3142.3658            0   -3133.4494   -60743.917    7096.9719 
     368    159.54392   -3142.3377            0   -3133.4493    -60800.15    7096.9719 
     369    159.00139   -3142.3074            0   -3133.4493   -60859.296    7096.9719 
     370    158.44485   -3142.2763            0   -3133.4492   -60917.482    7096.9719 
     371    157.90249    -3142.246            0    -3133.449   -60980.553    7096.9719 
     372    157.40325   -3142.2181            0   -3133.4489   -61047.514    7096.9719 
     373    156.97547   -3142.1941            0   -3133.4489   -61120.984    7096.9719 
     374    156.64563   -3142.1757            0   -3133.4488    -61200.09    7096.9719 
     375    156.43755    -3142.164            0   -3133.4487   -61286.932    7096.9719 
     376    156.37249   -3142.1603            0   -3133.4486   -61381.713    7096.9719 
     377    156.46782   -3142.1656            0   -3133.4486   -61487.699    7096.9719 
     378    156.73612   -3142.1805            0   -3133.4485   -61602.015    7096.9719 
     379    157.18443   -3142.2055            0   -3133.4485    -61724.21    7096.9719 
     380    157.81378   -3142.2405            0   -3133.4486   -61852.824    7096.9719 
     381    158.61881   -3142.2854            0   -3133.4486   -61984.659    7096.9719 
     382    159.58774   -3142.3395            0   -3133.4487   -62119.312    7096.9719 
     383    160.70273   -3142.4017            0   -3133.4487   -62254.327    7096.9719 
     384     161.9413   -3142.4708            0   -3133.4488   -62390.538    7096.9719 
     385    163.27715   -3142.5453            0   -3133.4489   -62526.242    7096.9719 
     386    164.68031   -3142.6236            0    -3133.449   -62660.516    7096.9719 
     387    166.11856   -3142.7038            0   -3133.4492   -62788.997    7096.9719 
     388    167.55858   -3142.7841            0   -3133.4493   -62910.045    7096.9719 
     389    168.96678   -3142.8627            0   -3133.4494   -63017.008    7096.9719 
     390    170.30994   -3142.9377            0   -3133.4495   -63108.514    7096.9719 
     391    171.55688   -3143.0072            0   -3133.4496   -63184.507    7096.9719 
     392    172.67921   -3143.0698            0   -3133.4497   -63243.014    7096.9719 
     393    173.65257   -3143.1241            0   -3133.4497    -63283.62    7096.9719 
     394    174.45708    -3143.169            0   -3133.4498   -63302.129    7096.9719 
     395    175.07606   -3143.2035            0   -3133.4498   -63297.809    7096.9719 
     396    175.49641    -3143.227            0   -3133.4499   -63273.023    7096.9719 
     397    175.71045   -3143.2389            0   -3133.4499   -63227.594    7096.9719 
     398    175.71663   -3143.2392            0   -3133.4499   -63160.668    7096.9719 
     399     175.5183   -3143.2282            0   -3133.4498   -63072.407    7096.9719 
     400     175.1227   -3143.2061            0   -3133.4498   -62969.279    7096.9719 
Loop time of 944.115 on 1 procs for 400 steps with 432 atoms

Performance: 0.037 ns/day, 655.636 hours/ns, 0.424 timesteps/s
99.4% CPU use with 1 MPI tasks x 1 OpenMP threads

MPI task timing breakdown:
Section |  min time  |  avg time  |  max time  |%varavg| %total
---------------------------------------------------------------
Pair    | 943.55     | 943.55     | 943.55     |   0.0 | 99.94
Bond    | 3.8862e-05 | 3.8862e-05 | 3.8862e-05 |   0.0 |  0.00
Neigh   | 0.055945   | 0.055945   | 0.055945   |   0.0 |  0.01
Comm    | 0.0060902  | 0.0060902  | 0.0060902  |   0.0 |  0.00
Output  | 0.50355    | 0.50355    | 0.50355    |   0.0 |  0.05
Modify  | 0.0028255  | 0.0028255  | 0.0028255  |   0.0 |  0.00
Other   |            | 0.001445   |            |       |  0.00

Nlocal:        432.000 ave         432 max         432 min
Histogram: 1 0 0 0 0 0 0 0 0 0
Nghost:        1625.00 ave        1625 max        1625 min
Histogram: 1 0 0 0 0 0 0 0 0 0
Neighs:         0.00000 ave           0 max           0 min
Histogram: 1 0 0 0 0 0 0 0 0 0
FullNghs:      29084.0 ave       29084 max       29084 min
Histogram: 1 0 0 0 0 0 0 0 0 0

Total # of neighbors = 29084
Ave neighs/atom = 67.324074
Ave special neighs/atom = 0.0000000
Neighbor list builds = 38
Dangerous builds = 29
Total wall time: 0:15:58
 
Job Ended at Wed Nov 15 18:14:22 EST 2023
