LiCl-mix.data (written by ASE) 

864 	 atoms 
2  atom types
0.0           14.9346358135  xlo xhi
0.0           14.9579177688  ylo yhi
0.0      29.882441293199999  zlo zhi


Masses

1 35.453
2 6.941


Atoms 

     1   0   1   0.0                 2.63253      2.7865899999999999      2.8344399999999998
     2   0   2   0.0                 2.65503      2.6996000000000002     0.31501000000000001
     3   0   2   0.0      2.7373500000000002                0.222856      2.6734499999999999
     4   0   2   0.0     0.19681299999999999      2.5130499999999998      2.7284299999999999
     5   0   2   0.0      5.2521899999999997                 2.66316                 2.90333
     6   0   1   0.0      5.2281599999999999                 0.17165      2.7805800000000001
     7   0   1   0.0      5.1759000000000004      2.7357499999999999     0.41855700000000001
     8   0   1   0.0      7.7475100000000001      2.5850900000000001      2.7524899999999999
     9   0   2   0.0      7.6310000000000002     0.20234199999999999                  2.7315
    10   0   2   0.0      7.6337200000000003      2.6577799999999998     0.37147999999999998
    11   0   2   0.0      10.123699999999999                 2.58081      2.8760500000000002
    12   0   1   0.0      10.233700000000001      2.6322199999999998     0.35918800000000001
    13   0   2   0.0                 10.1349     0.20714099999999999     0.38724900000000001
    14   0   1   0.0      12.556100000000001                 2.61395      2.8524099999999999
    15   0   1   0.0                 12.7163                0.187889     0.36046800000000001
    16   0   2   0.0                 2.58371      5.0719000000000003      2.8716400000000002
    17   0   1   0.0      2.6737600000000001      5.0775600000000001                0.399399
    18   0   1   0.0      2.5373100000000002      7.5610200000000001      2.8930799999999999
    19   0   1   0.0                0.195879      5.0362200000000001      2.7143899999999999
    20   0   1   0.0                 5.03965      5.0553999999999997      2.9079000000000002
    21   0   2   0.0      7.5771800000000002                  5.1673      2.7475499999999999
    22   0   2   0.0                 5.12812      5.1564899999999998     0.35371900000000001
    23   0   1   0.0      7.6605400000000001      5.0211800000000002     0.36165000000000003
    24   0   1   0.0      10.149699999999999      5.1441299999999996      2.8162799999999999
    25   0   2   0.0                 10.1288                 7.55436                 2.81257
    26   0   2   0.0                 10.1492      5.1153199999999996     0.42862800000000001
    27   0   2   0.0      7.6364900000000002                 7.59619     0.32420300000000002
    28   0   1   0.0      7.6396699999999997      7.6031500000000003      2.9198900000000001
    29   0   2   0.0      12.633599999999999      5.1836900000000004      2.9430399999999999
    30   0   1   0.0                 12.6432      5.1801000000000004     0.33335399999999998
    31   0   2   0.0      2.7792400000000002      10.121499999999999                 2.69828
    32   0   1   0.0     0.35077199999999997                 10.0509      2.7978999999999998
    33   0   2   0.0     0.19441700000000001      7.6394799999999998      2.8412700000000002
    34   0   1   0.0      2.6616300000000002      10.036300000000001     0.34811300000000001
    35   0   2   0.0                 5.29413      7.6534800000000001                 2.82423
    36   0   1   0.0      5.1221500000000004      7.6936200000000001     0.45043699999999998
    37   0   1   0.0      5.2351299999999998                 10.1457                 2.75251
    38   0   2   0.0      7.7601899999999997      10.074400000000001      2.8117000000000001
    39   0   1   0.0                  10.193      10.032999999999999      2.8340700000000001
    40   0   2   0.0                 10.2224                 10.1296                 0.36567
    41   0   1   0.0      10.055899999999999      7.6871799999999997     0.54658099999999998
    42   0   1   0.0      7.7589699999999997      10.128299999999999     0.36420599999999997
    43   0   1   0.0                 12.7484      7.6406000000000001      2.7506699999999999
    44   0   2   0.0                 15.0526      9.9918700000000005     0.32114100000000001
    45   0   2   0.0      12.579800000000001      9.9841899999999999      2.9147799999999999
    46   0   1   0.0     0.30193900000000001                 15.0273      2.7915800000000002
    47   0   2   0.0                 0.24384      14.938700000000001     0.41777799999999998
    48   0   1   0.0      2.6738300000000002      12.481299999999999      2.9415300000000002
    49   0   1   0.0                0.194024                 12.4841     0.35667900000000002
    50   0   2   0.0      2.4869300000000001      12.443300000000001     0.38702799999999998
    51   0   2   0.0      5.2165699999999999                 12.5153      2.7826499999999998
    52   0   1   0.0                 4.90672                 12.5465     0.32337700000000003
    53   0   1   0.0                 10.0875                 15.0238      2.8808600000000002
    54   0   1   0.0      7.6884699999999997      12.552099999999999      2.7894800000000002
    55   0   2   0.0      10.102399999999999      12.600300000000001                  2.7944
    56   0   2   0.0      7.6614300000000002      12.536799999999999     0.32161400000000001
    57   0   2   0.0      15.071999999999999      12.471399999999999      2.9325899999999998
    58   0   2   0.0                 12.5276                  15.038      2.7345299999999999
    59   0   1   0.0                 12.5161      12.457700000000001      2.8269700000000002
    60   0   2   0.0      2.6806800000000002                 2.50482      5.1769699999999998
    61   0   1   0.0     0.25567800000000002      2.7489400000000002      5.3979699999999999
    62   0   1   0.0      5.2341100000000003      2.5231599999999998      5.2823399999999996
    63   0   2   0.0                 7.61972      2.4922200000000001      5.2154299999999996
    64   0   1   0.0                 10.0817      2.7176100000000001      5.3155099999999997
    65   0   2   0.0                 12.6021      2.5599699999999999                 5.30152
    66   0   1   0.0      2.7275499999999999      5.2531100000000004      5.2721799999999996
    67   0   2   0.0     0.19556799999999999      5.0444599999999999      5.2792000000000003
    68   0   2   0.0      2.6884899999999998      7.5694999999999997      5.3349500000000001
    69   0   2   0.0      5.3180899999999998                  5.1814      5.2006800000000002
    70   0   1   0.0      7.5732999999999997      5.2007599999999998      5.2919999999999998
    71   0   2   0.0      7.7099299999999999                 7.55952      5.4023000000000003
    72   0   2   0.0                 10.1098      5.0932700000000004      5.2856199999999998
    73   0   1   0.0      10.311199999999999      7.5166500000000003      5.2452300000000003
    74   0   1   0.0                 12.6561      5.2084000000000001      5.3643200000000002
    75   0   1   0.0      2.6198100000000002      9.9989699999999999      5.3522999999999996
    76   0   1   0.0     0.19137899999999999                 7.81006      5.3706199999999997
    77   0   2   0.0     0.18847900000000001                 10.1256      5.3163099999999996
    78   0   1   0.0      5.2132899999999998      7.6280400000000004                 5.26797
    79   0   2   0.0      5.0850200000000001      10.007199999999999                 5.25427
    80   0   1   0.0      7.7755599999999996      9.9225200000000005      5.2289599999999998
    81   0   2   0.0      10.179399999999999      9.9804300000000001      5.2934400000000004
    82   0   2   0.0      12.676500000000001                 7.65646      5.4153399999999996
    83   0   1   0.0                 12.6272                 10.0991      5.2913199999999998
    84   0   1   0.0      2.6060400000000001                 14.9726      5.2085100000000004
    85   0   2   0.0                 0.25333                 15.0242      5.2271299999999998
    86   0   2   0.0      2.6999900000000001                 12.5555      5.2690099999999997
    87   0   2   0.0      5.2201399999999998                 14.9717      5.1665599999999996
    88   0   1   0.0      5.2039900000000001      12.523400000000001      5.3914200000000001
    89   0   1   0.0      7.6652699999999996                 15.0989      5.2095799999999999
    90   0   2   0.0      7.6392899999999999      12.598000000000001      5.1870200000000004
    91   0   2   0.0                 10.1005                 15.0229      5.2343099999999998
    92   0   1   0.0                 10.1441                 12.5814      5.3229699999999998
    93   0   1   0.0                 14.9238      12.450100000000001      5.3290600000000001
    94   0   1   0.0                 12.6976                 15.0976      5.0798899999999998
    95   0   2   0.0                 12.5838                 12.4831      5.3510900000000001
    96   0   1   0.0      2.6697500000000001                 2.62697                 7.73508
    97   0   2   0.0      2.7118199999999999      2.5766399999999998      10.172800000000001
    98   0   2   0.0      5.1856799999999996      2.6014200000000001      7.8515499999999996
    99   0   1   0.0      5.2447900000000001     0.16164000000000001      7.6864499999999998
   100   0   2   0.0                 7.60128     0.17103599999999999      7.6091100000000003
   101   0   1   0.0      7.7738300000000002      2.6372200000000001      7.8473499999999996
   102   0   2   0.0                 10.1602      2.6998799999999998      7.6798500000000001
   103   0   1   0.0      9.9508899999999993                 2.62704      10.192600000000001
   104   0   1   0.0      10.162699999999999     0.25589200000000001      7.6596700000000002
   105   0   2   0.0      7.6531700000000003      2.5861800000000001                 10.1251
   106   0   2   0.0      15.088699999999999      2.6042999999999998      7.7491300000000001
   107   0   1   0.0      12.499000000000001      2.5417399999999999      7.8474399999999997
   108   0   1   0.0      15.073600000000001                 2.65326      10.237299999999999
   109   0   1   0.0                 15.0602     0.16380800000000001      7.6547200000000002
   110   0   2   0.0      2.7259099999999998      5.0412600000000003      7.8566700000000003
   111   0   2   0.0                0.252224      7.6183699999999996      7.8213100000000004
   112   0   1   0.0     0.20758799999999999                 5.00448                 7.97506
   113   0   1   0.0     0.37090600000000001                 7.61442                 10.2623
   114   0   1   0.0      5.1596900000000003      5.1106499999999997      7.8296900000000003
   115   0   2   0.0      7.6022999999999996      5.0960000000000001      7.8279100000000001
   116   0   2   0.0      5.1321399999999997      5.1143700000000001                 10.2585
   117   0   2   0.0      5.2300199999999997      7.5776300000000001      7.8526300000000004
   118   0   1   0.0      10.009600000000001      5.1718599999999997      7.6909099999999997
   119   0   2   0.0                 10.0892      5.1755800000000001      10.248100000000001
   120   0   1   0.0      7.6346999999999996                 7.58352                 7.92666
   121   0   1   0.0      7.6814499999999999      4.9539900000000001                  10.228
   122   0   2   0.0      12.733000000000001      5.1955299999999998      7.7001499999999998
   123   0   1   0.0                 12.6557      7.5980699999999999                 7.82545
   124   0   2   0.0                 12.6309      7.5868500000000001                 10.2597
   125   0   1   0.0                 12.4992      5.1594899999999999                 10.2491
   126   0   1   0.0                 2.73075      7.6587899999999998      7.8740100000000002
   127   0   2   0.0      2.6667399999999999      10.040100000000001      7.8362600000000002
   128   0   1   0.0      2.7170200000000002      10.131399999999999                 10.2279
   129   0   1   0.0      5.2423099999999998                 10.0844      7.7994599999999998
   130   0   2   0.0      5.1416599999999999                  10.225                 10.2197
   131   0   2   0.0                 7.62669      10.074999999999999      7.6695399999999996
   132   0   2   0.0                 10.1248      7.6385300000000003      7.8792600000000004
   133   0   1   0.0                 10.0999      10.001300000000001      7.9246299999999996
   134   0   2   0.0      10.111599999999999      10.103999999999999                 10.2355
   135   0   1   0.0      15.042199999999999      10.165900000000001      7.9116900000000001
   136   0   2   0.0                 12.6751                 9.96767      7.6996799999999999
   137   0   1   0.0      12.662699999999999      9.9514700000000005                 10.2309
   138   0   2   0.0                 2.62297      15.037000000000001      7.6316100000000002
   139   0   1   0.0      2.6279499999999998      12.549799999999999      7.7047699999999999
   140   0   1   0.0      2.7165900000000001                 15.0814                 10.0989
   141   0   2   0.0      5.1013500000000001      12.580500000000001      7.6971699999999998
   142   0   1   0.0      7.5736999999999997      12.563800000000001      7.8824699999999996
   143   0   2   0.0      5.1653399999999996      15.061299999999999                 10.1623
   144   0   1   0.0      4.9811300000000003      12.613899999999999                 10.1534
   145   0   2   0.0                 10.1279                 12.6829      7.7427700000000002
   146   0   2   0.0      10.103300000000001                 15.0686                 10.1204
   147   0   1   0.0      7.6968899999999998                 15.0799      9.9858499999999992
   148   0   2   0.0                 12.5227                 15.0436      7.6947799999999997
   149   0   2   0.0      15.027900000000001                 12.6403      7.9529100000000001
   150   0   1   0.0      12.546799999999999      12.637499999999999      7.8655400000000002
   151   0   2   0.0      12.535299999999999                  12.561      10.263299999999999
   152   0   1   0.0      2.4399500000000001                 2.59667                 12.7064
   153   0   2   0.0     0.18471799999999999      2.6479699999999999      12.699199999999999
   154   0   1   0.0      5.0558800000000002      2.6848800000000002      10.321300000000001
   155   0   2   0.0                 5.11693                 2.57267                 12.6982
   156   0   2   0.0      7.6218300000000001     0.23188800000000001      12.819900000000001
   157   0   1   0.0      7.6413200000000003      2.7368999999999999                 12.7448
   158   0   2   0.0                 10.0611                 2.61991                 12.8019
   159   0   2   0.0      12.543900000000001                 2.77508                 10.3035
   160   0   2   0.0      15.029299999999999     0.17699400000000001                 10.3104
   161   0   1   0.0      12.431900000000001      2.7585099999999998                 12.7141
   162   0   2   0.0      2.6264500000000002      7.5101399999999998      10.427199999999999
   163   0   2   0.0     0.29025600000000001      5.0255599999999996                 10.3216
   164   0   1   0.0      2.7056200000000001      5.0236999999999998      10.325900000000001
   165   0   2   0.0      2.6257199999999998      5.0411900000000003                 12.7775
   166   0   1   0.0                0.217005      5.1431899999999997                 12.7064
   167   0   1   0.0                 5.13673      5.2235300000000002      12.794700000000001
   168   0   1   0.0      5.3128099999999998      7.5047100000000002      10.292899999999999
   169   0   1   0.0      10.089700000000001      7.5350900000000003      10.335800000000001
   170   0   2   0.0      7.6466599999999998      5.0690600000000003                  12.654
   171   0   1   0.0                 10.0002      5.1617100000000002      12.765599999999999
   172   0   2   0.0      12.529199999999999      5.0514999999999999                  12.823
   173   0   1   0.0                 12.5487                 7.55884                 12.8139
   174   0   2   0.0                 15.0543      7.5757000000000003      12.831300000000001
   175   0   2   0.0     0.19270599999999999      10.152100000000001      10.292299999999999
   176   0   1   0.0      2.6903999999999999      7.8304799999999997                 12.7828
   177   0   2   0.0      2.6806800000000002                 10.1153                 12.7844
   178   0   1   0.0     0.20236999999999999      10.146599999999999                 12.6097
   179   0   2   0.0                 5.21976      7.7057200000000003                  12.741
   180   0   1   0.0      5.0388799999999998                 10.2712      12.664199999999999
   181   0   2   0.0      7.5261899999999997      10.229900000000001      12.739000000000001
   182   0   2   0.0      7.6806999999999999      7.6612099999999996      10.281700000000001
   183   0   1   0.0      7.6271599999999999      7.6682600000000001                 12.7918
   184   0   2   0.0      10.082599999999999      7.6583899999999998      12.730499999999999
   185   0   1   0.0      7.7364100000000002      10.213699999999999      10.358499999999999
   186   0   1   0.0      10.265599999999999      10.108000000000001                 12.7043
   187   0   2   0.0      12.539199999999999                 10.1275                 12.6243
   188   0   2   0.0                 2.59998                 14.9566                 12.6197
   189   0   2   0.0      2.7505199999999999                 12.5199      10.302300000000001
   190   0   1   0.0      2.5870299999999999                 12.5787      12.687200000000001
   191   0   1   0.0     0.22750000000000001                  14.952      12.738899999999999
   192   0   2   0.0      7.5366200000000001                 12.5937                 10.2986
   193   0   1   0.0      5.1275899999999996      15.045999999999999                 12.6335
   194   0   2   0.0      5.0563700000000003                 12.7644                 12.8833
   195   0   1   0.0                 10.0967                 15.0952                 12.8553
   196   0   1   0.0      7.6368099999999997                  12.602                 12.6694
   197   0   1   0.0                 10.0891                 12.6052      10.310600000000001
   198   0   2   0.0                 10.0589      12.665100000000001                 12.8352
   199   0   1   0.0      12.523300000000001                 15.0748                 10.3538
   200   0   1   0.0                 15.0099                 12.5707      10.350199999999999
   201   0   2   0.0                 12.4613      15.051600000000001      12.642300000000001
   202   0   2   0.0                 15.0136                 12.6098      12.707000000000001
   203   0   1   0.0      12.604699999999999      12.636799999999999                 12.7232
   204   0   2   0.0      2.6168399999999998      2.5772499999999998      15.160500000000001
   205   0   1   0.0      2.6072199999999999     0.15021999999999999                 15.3725
   206   0   1   0.0      5.1123599999999998      2.6312899999999999                 15.4567
   207   0   2   0.0      5.1442300000000003     0.26968300000000001      15.478999999999999
   208   0   1   0.0      7.5835999999999997     0.16184499999999999                 15.2258
   209   0   2   0.0      7.6991399999999999      2.7555900000000002                 15.2834
   210   0   1   0.0                 10.1257      2.7661199999999999                 15.3406
   211   0   1   0.0                  14.965      2.5015200000000002      15.255599999999999
   212   0   2   0.0                 12.6884      2.6631100000000001      15.262600000000001
   213   0   1   0.0      12.518599999999999                0.225465      15.388400000000001
   214   0   2   0.0      15.091100000000001                0.152339                 15.1995
   215   0   1   0.0                 2.56799      5.1058300000000001                 15.0785
   216   0   2   0.0                0.209063      5.2637200000000002                 15.2128
   217   0   1   0.0     0.26339099999999999      7.6257900000000003      15.160299999999999
   218   0   2   0.0      5.0798699999999997      5.2264200000000001      15.415900000000001
   219   0   1   0.0      7.6326200000000002      5.1267899999999997      15.333600000000001
   220   0   2   0.0      10.071199999999999                 5.14107      15.237299999999999
   221   0   1   0.0                 12.6312      5.1093999999999999                 15.2334
   222   0   2   0.0                 12.6896      7.5747400000000003      15.248900000000001
   223   0   2   0.0                 2.63239      7.6523599999999998      15.213900000000001
   224   0   1   0.0      2.5152000000000001                  10.096      15.188800000000001
   225   0   2   0.0     0.24943499999999999      10.117599999999999                 15.0587
   226   0   1   0.0                 4.97628      7.7163700000000004                 15.2258
   227   0   2   0.0      5.1338400000000002                 10.0915      15.404500000000001
   228   0   1   0.0      10.029400000000001                 7.76898      15.176600000000001
   229   0   2   0.0      7.6295999999999999      7.7702499999999999      15.335900000000001
   230   0   1   0.0      7.6724199999999998      10.157299999999999                 15.2949
   231   0   2   0.0      10.070399999999999      10.268599999999999                 15.1068
   232   0   1   0.0                  12.727                 10.0694                 15.2418
   233   0   2   0.0      2.6519900000000001      12.506600000000001      15.310700000000001
   234   0   1   0.0                 0.21081      12.673500000000001                 15.1128
   235   0   1   0.0      5.1920400000000004      12.684900000000001                 15.2651
   236   0   2   0.0      7.5861700000000001                 12.5817                 15.3109
   237   0   2   0.0                 10.0418      15.005599999999999                 15.3034
   238   0   1   0.0                 10.2385                 12.5449      15.205500000000001
   239   0   2   0.0      12.715199999999999                 12.6442      15.274699999999999
   240   0   2   0.0      2.7012999999999998     0.33721899999999999      17.690300000000001
   241   0   1   0.0                  2.6532                 2.62052      17.816700000000001
   242   0   2   0.0                0.180947      2.6241699999999999      17.769300000000001
   243   0   1   0.0     0.32557700000000001      2.7146499999999998      20.085000000000001
   244   0   2   0.0      5.0600300000000002      2.7664200000000001                 17.8323
   245   0   1   0.0                 5.14581     0.29518100000000003      17.866599999999998
   246   0   2   0.0      7.6153599999999999     0.29812100000000002      17.837900000000001
   247   0   1   0.0      5.3332899999999999                 2.76729      20.221299999999999
   248   0   1   0.0                 7.78477                 2.57416      17.859400000000001
   249   0   2   0.0                 10.2675                 2.63456      17.657299999999999
   250   0   1   0.0      10.075799999999999      2.5537000000000001      20.210599999999999
   251   0   1   0.0                  12.631      2.7056300000000002                 17.7501
   252   0   1   0.0      12.740600000000001     0.19215299999999999      20.110299999999999
   253   0   2   0.0      12.550800000000001      2.6657000000000002      20.166899999999998
   254   0   2   0.0      2.7896800000000002                  5.2096      17.897200000000002
   255   0   1   0.0     0.16675300000000001      5.2368899999999998      17.805299999999999
   256   0   2   0.0     0.20366699999999999      5.1036099999999998      20.155200000000001
   257   0   1   0.0      5.0553800000000004      5.2546400000000002      17.766400000000001
   258   0   2   0.0      7.6594800000000003      5.1278600000000001      17.843800000000002
   259   0   1   0.0      10.016400000000001      5.1252500000000003      17.624500000000001
   260   0   1   0.0      10.117800000000001      7.5391399999999997      20.192299999999999
   261   0   2   0.0      12.658899999999999                 5.20627      17.681100000000001
   262   0   1   0.0                 12.5778      7.5257500000000004                 17.6083
   263   0   1   0.0                 15.0474      7.6178400000000002      20.195900000000002
   264   0   2   0.0      12.652799999999999      7.6016700000000004      20.205200000000001
   265   0   2   0.0                0.312579      7.6794200000000004      17.669699999999999
   266   0   1   0.0      2.6190799999999999      7.6583399999999999      17.731000000000002
   267   0   2   0.0      2.6152799999999998      10.053800000000001                 17.8659
   268   0   1   0.0                 2.69462                 10.1463      20.197199999999999
   269   0   1   0.0     0.18296899999999999                 10.1318      17.832000000000001
   270   0   2   0.0      5.0636299999999999      7.8073300000000003      17.717300000000002
   271   0   1   0.0      5.0579200000000002                 10.2502                 17.7729
   272   0   2   0.0      7.5598999999999998                 10.2988      17.873999999999999
   273   0   1   0.0      7.6339699999999997      7.8528399999999996      17.684799999999999
   274   0   2   0.0      9.9235000000000007      7.6611500000000001      17.655100000000001
   275   0   1   0.0      9.9704599999999992                 10.1686      17.793800000000001
   276   0   2   0.0      10.117699999999999      10.077199999999999      20.169499999999999
   277   0   2   0.0                  12.528                 10.0848      17.685099999999998
   278   0   1   0.0                 12.4693                  10.042      20.006699999999999
   279   0   1   0.0     0.26663900000000001                 14.9521                 17.6753
   280   0   1   0.0      2.5722200000000002      12.664099999999999      17.750900000000001
   281   0   2   0.0     0.23938300000000001                 15.0687      20.142700000000001
   282   0   2   0.0      2.6889699999999999                 12.6905                  20.212
   283   0   2   0.0      5.1150000000000002      12.568199999999999      17.928999999999998
   284   0   1   0.0      7.5846900000000002                 12.6601                 17.7501
   285   0   1   0.0      10.110900000000001                 15.0716      17.624400000000001
   286   0   2   0.0      10.087400000000001                 12.6426      17.738199999999999
   287   0   2   0.0                 10.0814      15.049799999999999                 20.2164
   288   0   2   0.0                 12.5586                 15.0021                 17.6752
   289   0   2   0.0                 15.0101                 12.5528      17.626899999999999
   290   0   1   0.0      12.718999999999999                 12.5715      17.781600000000001
   291   0   2   0.0      12.512499999999999                 12.5349      20.194600000000001
   292   0   1   0.0      2.6764199999999998                0.153557      20.324000000000002
   293   0   2   0.0      2.6797399999999998      2.6669700000000001      20.302600000000002
   294   0   1   0.0                 2.64202      2.5577000000000001      22.714400000000001
   295   0   1   0.0     0.33055600000000002                0.197542                 22.9055
   296   0   2   0.0                 2.67326     0.21543899999999999      22.754100000000001
   297   0   2   0.0      7.6174799999999996      2.7276699999999998      20.313199999999998
   298   0   2   0.0      5.1651499999999997      2.6431499999999999      22.654499999999999
   299   0   2   0.0      7.5974700000000004                0.185002                 22.7881
   300   0   1   0.0      4.9992700000000001     0.30352800000000002      22.663599999999999
   301   0   2   0.0      5.1813599999999997     0.28423799999999999                 20.2805
   302   0   1   0.0      7.6800100000000002      2.6950099999999999      22.736499999999999
   303   0   2   0.0                 10.1052      2.6720700000000002      22.634799999999998
   304   0   2   0.0                 14.9245      2.6837800000000001      22.752700000000001
   305   0   1   0.0      12.561400000000001      2.4941499999999999      22.439299999999999
   306   0   2   0.0      12.489699999999999     0.16009899999999999      22.734300000000001
   307   0   2   0.0      2.5297100000000001                 5.29542      22.742999999999999
   308   0   1   0.0      2.8001100000000001      5.1698000000000004      20.330200000000001
   309   0   1   0.0     0.16416900000000001      5.0060599999999997                 22.8034
   310   0   1   0.0      2.6404899999999998      7.6241399999999997      22.633900000000001
   311   0   2   0.0      5.1323600000000003      5.2814199999999998                 20.3719
   312   0   1   0.0      7.5833199999999996      5.1423899999999998      20.361799999999999
   313   0   1   0.0      4.9660599999999997      5.1648100000000001      22.736499999999999
   314   0   2   0.0      10.159000000000001      5.2147100000000002      20.246099999999998
   315   0   2   0.0      7.6886000000000001                 5.20024                  22.669
   316   0   1   0.0                 10.0764      5.3718899999999996      22.624500000000001
   317   0   1   0.0                 12.5197      5.2977699999999999      20.358699999999999
   318   0   2   0.0                   12.52      5.2234699999999998      22.626999999999999
   319   0   1   0.0                 12.6783      7.5474699999999997      22.708400000000001
   320   0   2   0.0      2.6960199999999999      7.7110099999999999      20.282699999999998