216
Lattice="-12.99 12.99 12.99 12.99 -12.99 12.99 12.99 12.99 -12.99" Properties=species:S:1:pos:R:3:tags:I:1:forces:R:3 energy=-297.88628268290876 stress="0.016685390025215838 4.151976294462706e-06 -1.5086810430039667e-05 4.151976294462706e-06 0.016672352362379666 -2.241287546533484e-05 -1.5086810430039667e-05 -2.241287546533484e-05 0.016668037468601515" free_energy=-297.88628268290876 pbc="T T T"
Li       0.02420084      -0.00693338       0.31070164        0      -0.00913672      -0.00567845      -0.03965480
Li       2.17920302       2.26426098      23.69178521        0       0.01683990      -0.01049673       0.02945028
Li      -8.40872159      17.13041326       8.61318659        0      -0.04055505       0.00340781       0.00092615
Li       6.49500000       6.49500000      -6.49500000        0       0.00338979      -0.00445992       0.00105531
Li       8.66047853       8.58578838      17.30259125        0       0.00028205      -0.00727711       0.01448176
Li      10.93263584      10.68682357     -10.66208489        0      -0.01169359       0.02240692      -0.00972107
Li       2.16500000      -2.16500000       2.16500000        0       0.00073182      -0.00729215       0.00300342
Li       4.33000000       0.00000000       0.00000000        0      -0.02078275       0.00014712       0.00538156
Li       6.30846233       2.12371967      -1.91954689        0       0.02291132       0.00453796      -0.03180368
Li      -4.35704011      17.32752299       8.56638075        0      -0.00851776      -0.00488817       0.01017034
Li      -2.07462340      19.37205797       6.59695968        0      -0.01132626       0.01095244      -0.02257270
Li       0.02850128      21.55915157       4.22516389        0       0.00692210       0.00151531       0.01877036
Li       4.33555289      21.63199431       4.21784244        0      -0.00892312       0.01000961       0.01999932
Li       6.33465069      -2.03115763       2.17546018        0       0.02640451      -0.01101506      -0.00529324
Li       8.63998059       0.08117372       0.00672512        0      -0.01319664      -0.01668461       0.00028865
Li      10.82500000       2.16500000      -2.16500000        0       0.00980405      -0.00406686       0.00522372
Li      12.99000000       4.33000000      -4.33000000        0       0.01277845      -0.00761360       0.00693687
Li      15.15500000       6.49500000      -6.49500000        0       0.00050452      -0.00799016       0.00400669
Li       6.49500000      -6.49500000       6.49500000        0      -0.00119243       0.01030214      -0.00435500
Li       8.70048841      -3.82340221       4.62389788        0      -0.00760661      -0.08147154      -0.05319684
Li      -2.21561572      10.80012614      15.02139533        0       0.01435926       0.01743344       0.02884301
Li      12.99000000       0.00000000      -0.00000000        0      -0.01083909       0.00919170      -0.00525317
Li      15.11036477       2.25473392      -2.12133276        0       0.00058014      -0.02736366      -0.00492232
Li       4.19963584      17.20369175       8.76063349        0       0.01113214       0.02130023      -0.02061785
Li      -4.27873103       4.43197571      21.26756561        0       0.00485494      -0.01121908       0.05709084
Li      10.82500000      -6.49500000       6.49500000        0       0.01125829       0.01795264      -0.00523291
Li      12.99000000      -4.33000000       4.33000000        0      -0.01042316       0.00680662       0.00232188
Li       2.11006662      10.68443416      15.27686003        0       0.00725252       0.02163680      -0.00423425
Li      17.32000000       0.00000000       0.00000000        0      -0.00144047      -0.00045655      -0.00464746
Li       6.52612389      15.13951296      10.82208561        0      -0.00601076       0.00903981      -0.00210767
Li      -2.20317711       2.26491058      23.71280047        0       0.00528590      -0.00266333       0.00609226
Li      12.99000000      -8.66000000       8.66000000        0      -0.02605121      -0.01111326      -0.00600335
Li       2.00830414       6.40157317      19.45722732        0       0.01801173       0.01503442      -0.03277316
Li      17.32000000      -4.33000000       4.33000000        0      -0.00931518      -0.00240056       0.00361778
Li      19.48500000      -2.16500000       2.16500000        0      -0.00714469      -0.00088118       0.01550466
Li      21.65000000      -0.00000000       0.00000000        0      -0.00702288      -0.00712163      -0.01554429
Li      -2.16500000       2.16500000       2.16500000        0       0.01595411       0.00401807       0.02648490
Li       0.07321786       4.37601297       0.03739786        0      -0.03641590      -0.00158629       0.01731019
Li       2.00267205       6.36559916      -1.79331219        0       0.02619484       0.01171260      -0.05759541
Li      17.24371478      -4.18920884       8.59417781        0       0.01469007      -0.00738889       0.01637721
Li       6.49500000      10.82500000      -6.49500000        0      -0.00363116       0.01786827       0.00200814
Li       8.55670230      13.21039837      -8.48648220        0       0.01770368      -0.02867879      -0.01836971
Li       0.00000000      -0.00000000       4.33000000        0       0.01519484       0.01098604      -0.01279475
Li       1.97753472       2.17674385       2.20869023        0       0.05514674      -0.00379803       0.00924824
Li       4.27975016       4.30373639       0.11167506        0      -0.01417946       0.01207449      -0.00868553
Li       6.38161401       6.54637659      -2.23932722        0       0.03149873      -0.01389095       0.00877298
Li       8.66000000       8.66000000      -4.33000000        0      -0.00965770      -0.02769292      -0.01005303
Li      10.88726560      10.89387290      -6.52110526        0      -0.01150676      -0.00350789       0.00469914
Li       2.28156349      -2.20557566       6.62437103        0      -0.00874561       0.00162878      -0.02354265
Li       4.33000000       0.00000000       4.33000000        0      -0.00860036       0.00451332       0.00255366
Li       6.33292893       2.15364534       2.00791524        0       0.03517419      -0.00730604       0.00050272
Li       8.66000000       4.33000000       0.00000000        0      -0.00327655      -0.00367959       0.01335220
Li      10.82500000       6.49500000      -2.16500000        0       0.01641358      -0.00858549      -0.01372531
Li      13.14046761       8.64424666      -4.27360640        0      -0.01562875       0.00283857       0.00890338
Li       4.33000000      -4.33000000       8.66000000        0       0.00678211       0.00730945       0.00592454
Li       6.49500000      -2.16500000       6.49500000        0      -0.02110357       0.00385760       0.02619896
Li       8.68406705      -0.14644247       4.30307512        0      -0.01144078       0.01063238       0.00708941
Li      10.67019007       2.05390560       2.21180340        0       0.02436933       0.01590411      -0.01261669
Li      12.93974431       4.16444868      -0.06910357        0       0.00452990       0.02375350       0.01626307
Li      15.15500000       6.49500000      -2.16500000        0      -0.00036446      -0.01396501       0.00451600
Li       6.49500000      -6.49500000      10.82500000        0       0.00269611       0.00389340       0.00225150
Li       8.62147634      -4.35274426       8.66300966        0       0.01828809       0.01710706      -0.03208677
Li      10.82500000      -2.16500000       6.49500000        0       0.02013928       0.02840306       0.03272818
Li      12.99000000       0.00000000       4.33000000        0      -0.01361881      -0.00787548      -0.00391683
Li      15.19855882       2.10084031       2.14022249        0       0.00233957       0.01558750       0.00221958
Li      17.32000000       4.33000000       0.00000000        0      -0.00730019      -0.01576787      -0.00494767
Li       8.79676149      -8.59199744      12.96364398        0      -0.02525439      -0.00326189       0.02189320
Li      10.82500000      -6.49500000      10.82500000        0       0.00952087      -0.01402301       0.00247189
Li      12.87290698      -4.19219636       8.72234575        0       0.01707240      -0.01780636      -0.01761011
Li      15.06833627      -2.08976731       6.44024526        0       0.00721556      -0.00083799       0.00127580
Li      17.32000000       0.00000000       4.33000000        0       0.00412372      -0.00279211       0.00515893
Li      19.48500000       2.16500000       2.16500000        0      -0.00401687       0.00577511       0.00168020
Li      -4.24659733       4.49135963       4.46076649        0      -0.02308542      -0.03274011      -0.01037250
Li      10.72159007      -6.32812722      15.18443021        0       0.01913661      -0.02462619       0.00619926
Li      -0.02348316       8.35741486       0.20399882        0      -0.00017169       0.04284882      -0.02402767
Li       2.16500000      10.82500000      -2.16500000        0      -0.00063057       0.01127511      -0.00656998
Li       4.45746184      13.14015281      -4.35955122        0      -0.01453333      -0.02357179      -0.00908611
Li       6.49500000      15.15500000      -6.49500000        0      -0.00329614       0.03165760       0.00487777
Li      -2.16500000       2.16500000       6.49500000        0      -0.00512148       0.00317637       0.01344339
Li       0.17640255       4.17040626       4.38636304        0      -0.03914276       0.01979178      -0.00375862
Li       2.16500000       6.49500000       2.16500000        0       0.01316957      -0.02634564       0.00383011
Li       4.32354739       8.51535976      -0.18557950        0      -0.01508217       0.01638452       0.04682506
Li       6.34855051      10.78944216      -2.20830866        0       0.02307475       0.00637291      -0.00188495
Li       8.55738643      13.31275102      -4.35864817        0      -0.00854222      -0.04758989      -0.02669868
Li       0.13013577      -0.11234434       8.79047580        0       0.00059717       0.02393348      -0.01341949
Li       2.32635350       2.17252673       6.45380272        0      -0.01446763      -0.00468425       0.01727375
Li       4.44959250       4.35551460       4.33784237        0      -0.03524904      -0.00280688      -0.00015327
Li       6.49500000       6.49500000       2.16500000        0      -0.00373312      -0.00125142      -0.00085972
Li       8.88735710       8.41139340       0.15156883        0      -0.02558355       0.01494619      -0.00836658
Li      10.73838941      10.76861040      -2.13985860        0       0.02741961       0.01079246      -0.00492654
Li       2.28446860      -2.11453528      10.90727791        0      -0.01044531      -0.02190783      -0.01952402
Li       4.33000000       0.00000000       8.66000000        0       0.00215829       0.00149098       0.01330795
Li       6.38733131       2.37714848       6.78732983        0       0.02071680      -0.03482183      -0.03029248
Li       8.66000000       4.33000000       4.33000000        0      -0.01695806       0.01576225       0.00694870
Li      10.93419763       6.44367315       2.29904651        0      -0.02753877      -0.00218245      -0.01585569
Li      12.99000000       8.66000000       0.00000000        0      -0.01886116       0.01399236       0.00344762
Li       4.49698156      -4.13875566      13.09689629        0      -0.02247374      -0.01930493      -0.01870216
Li       6.62261841      -2.11267131      10.67728024        0      -0.03585817      -0.00897546       0.02829062
Li       8.68310697      -0.04324263       8.69481557        0       0.00322212       0.01532393      -0.00482857
Li      10.65851996       2.17935659       6.48323302        0       0.02814652      -0.00255693       0.00456754
Li      12.99000000       4.33000000       4.33000000        0      -0.00624248      -0.02398024      -0.00191647
Li      15.15500000       6.49500000       2.16500000        0      -0.00066812       0.00690004       0.00180043
Li      19.35982099       6.50919109       2.11318470        0       0.03173554       0.02072610       0.02058119
Li       8.59192931      -4.24427479      13.13052576        0       0.00399098      -0.01281856      -0.01860248
Li      10.98265448      -2.01112989      10.83622873        0      -0.03936197      -0.01930665       0.00229250
Li      12.99000000       0.00000000       8.66000000        0      -0.00241352       0.00376101       0.00717227
Li      15.15500000       2.16500000       6.49500000        0       0.02052387       0.00408214       0.00455393
Li      17.32456958       4.41418239       4.35696342        0      -0.01013734      -0.01398191      -0.01092923
Li      -6.40585157       6.53927927       6.42024598        0      -0.01006688      -0.00086524       0.01335266
Li      -4.33000000       8.66000000       4.33000000        0       0.00243204      -0.00604979      -0.00321130
Li      -2.16500000      10.82500000       2.16500000        0      -0.01670351      -0.00530545       0.00389990
Li      12.97968088       0.05257421      12.92975021        0       0.00318767       0.02831893       0.01972454
Li       2.30759476      15.25966650      -2.13288830        0      -0.00705206      -0.01959239       0.01693669
Li       4.40096471      17.35775410      -4.25351262        0      -0.01868403      -0.01251042      -0.01264111
Li      -4.27361254       4.34908064       8.57954281        0      -0.00794985      -0.00686631       0.00680368
Li      -2.16500000       6.49500000       6.49500000        0       0.01328504      -0.01075675      -0.00446095
Li       0.06721797       8.71500625       4.36300324        0      -0.00969443       0.01083708      -0.00553818
Li       2.33509793      10.99212061       2.37748660        0      -0.03084706      -0.04666119      -0.05371406
Li       4.46428327      12.93591381       0.20140407        0      -0.01333368       0.00295080      -0.04189522
Li       6.49500000      15.15500000      -2.16500000        0       0.00346434       0.01989699       0.01729867
Li      10.77587687      15.03736625      -2.27119623        0       0.01573497       0.01984255       0.02035046
Li      -0.01195923       4.10707840       8.69352809        0       0.00152127       0.01827736      -0.01340108
Li       2.02201494       6.50868060       6.44929787        0       0.02834915      -0.00313257       0.00168176
Li       4.33000000       8.66000000       4.33000000        0      -0.00622643       0.01513079       0.00916087
Li       6.46638013      10.77059745       2.10505391        0       0.00460552       0.00269382       0.01947411
Li       8.76057679      13.16683454       0.17015636        0      -0.02279968      -0.01044151      -0.01615152
Li      13.04957670      12.90112917       0.00871342        0      -0.00707264       0.01870306      -0.00609686
Li       2.16500000       2.16500000      10.82500000        0       0.01027739      -0.03189095       0.01663146
Li       4.33000000       4.33000000       8.66000000        0      -0.00919473       0.00830783       0.01839902
Li       6.49479076       6.63523079       6.46219966        0       0.01014312      -0.04425050       0.00278154
Li       8.69376277       8.65452576       4.23974166        0       0.01411420      -0.01428578       0.02389772
Li      10.88181580      10.92014598       2.41257677        0      -0.02596104      -0.00684364      -0.05034169
Li       2.16500000      -2.16500000      15.15500000        0      -0.01710705       0.00416399      -0.00461654
Li       4.23597916      -0.21038396      12.95926581        0       0.02523615       0.03870775       0.01607572
Li       6.49500000       2.16500000      10.82500000        0      -0.00159546      -0.00212812      -0.02557720
Li       8.66000000       4.33000000       8.66000000        0      -0.02581130       0.00672869       0.02547506
Li      10.68069351       6.32558930       6.60727534        0       0.01626327       0.02657886      -0.02368880
Li      12.58830887       8.80685001       4.40881540        0       0.07255727      -0.02682582      -0.00920200
Li      17.18322974       8.76435061       4.35395994        0       0.04669830      -0.01371279      -0.01141341
Li       6.52406628      -2.19292712      15.17256666        0      -0.01093677       0.00949173       0.01201355
Li       8.66000000       0.00000000      12.99000000        0       0.01137037       0.01030753       0.00586742
Li      10.82500000       2.16500000      10.82500000        0      -0.00575547      -0.01474611       0.00350901
Li      13.16722341       4.32721067       8.91825565        0      -0.04162824       0.00222801      -0.03824233
Li      15.15500000       6.49500000       6.49500000        0      -0.00150433      -0.00086070       0.01905230
Li      -8.56755034       8.78188243       8.61863349        0      -0.02574467      -0.01930471       0.00625112
Li      -6.49500000      10.82500000       6.49500000        0       0.00150389       0.00429970      -0.01292812
Li       8.49352745       0.11939314      17.12628110        0       0.02380480      -0.01473614       0.03238797
Li      10.74240288       2.31385785      15.16100489        0      -0.01333450      -0.02572559       0.00050462
Li      12.83539490       4.35240030      13.11363143        0       0.02493759      -0.00220029      -0.04610680
Li      14.97094329       6.50303950      10.79999318        0       0.04754223      -0.00228416       0.03414620
Li      -6.49500000       6.49500000      10.82500000        0       0.02649106       0.00016827      -0.00136967
Li      -4.24110415       8.38287964       8.56051045        0      -0.01552459       0.04959606       0.00990823
Li      -2.20486253      10.95060078       6.48249175        0       0.00922453      -0.01870848      -0.00708321
Li       0.11512987      13.04038304       4.19105963        0       0.00117078      -0.00259393       0.01326531
Li       2.33094128      15.01132187       1.87227752        0      -0.00641675       0.01254550       0.04713838
Li       4.33000000      17.32000000       0.00000000        0       0.00717939       0.00860105      -0.01052688
Li      -4.16017816       4.39718689      12.90234491        0      -0.02276154      -0.02707515       0.00151336
Li      -2.16500000       6.49500000      10.82500000        0       0.00581817      -0.00532978      -0.00549653
Li       0.00751163       8.78540005       8.57993365        0      -0.00758856      -0.00256182       0.00162355
Li       2.16500000      10.82500000       6.49500000        0       0.00414877       0.00902938      -0.00924333
Li       4.30371247      12.78742189       4.18493083        0       0.02356536       0.05078408       0.01591672
Li       6.42204286      15.08313140       1.97123522        0       0.00973997       0.01793756       0.03113827
Li      -2.16500000       2.16500000      15.15500000        0       0.01653448      -0.00545739       0.01128391
Li      -0.00193367       4.08701658      13.04223996        0      -0.00746601       0.04173145      -0.01659602
Li       2.15882561       6.49091819      10.93889318        0      -0.00617747      -0.01810518      -0.01599014
Li       4.19885664       8.62678266       8.69909493        0       0.01112355       0.00266481      -0.01647918
Li       6.49500000      10.82500000       6.49500000        0      -0.01220147      -0.02021192       0.00102458
Li       8.72385622      13.12604739       4.19745823        0      -0.00193377      -0.02280539       0.01399923
Li      12.87150323      12.87541361       4.32049332        0       0.02020853       0.02236789       0.00981890
Li       2.18376694       2.10774339      14.94643674        0      -0.00841227      -0.02056892       0.03173126
Li       4.25896300       4.20112979      12.95652594        0       0.00265197       0.02279797       0.00221762
Li       6.48445855       6.33799001      10.85608503        0      -0.00077158       0.02879888      -0.01014772
Li       8.57831634       8.54819328       8.59233268        0       0.00512426       0.01985526       0.02352115
Li      10.82500000      10.82500000       6.49500000        0      -0.02079892       0.02092211      -0.00023829
Li       2.12350046      -2.11054871      19.50037965        0      -0.00041647       0.00278819       0.00086371
Li       4.31150674       0.00873295      17.18356988        0       0.01663925      -0.01276545       0.01979037
Li       6.56867486       2.18846534      15.30141844        0      -0.01570085       0.00974290      -0.04093144
Li       8.74742036       4.16811882      12.87135082        0      -0.00654228       0.01711631       0.01761990
Li      10.76620319       6.60499272      10.80077165        0       0.01519170      -0.02512937       0.00817797
Li      13.03037042       8.58671899       8.88829112        0      -0.02077081       0.01841943      -0.04011497
Li     -10.82500000      10.82500000      10.82500000        0       0.00969420      -0.00476401       0.00239654
Li      -8.66000000      12.99000000       8.66000000        0      -0.00174716       0.00389090       0.01013895
Li      -6.49500000      15.15500000       6.49500000        0       0.00598439      -0.00657261      -0.04401783
Li      -4.33000000      17.32000000       4.33000000        0      -0.00542847       0.00055032       0.01572968
Li      -2.16500000      19.48500000       2.16500000        0      -0.00135308      -0.00415944      -0.00524501
Li      -0.00000000      21.65000000       0.00000000        0      -0.00761424      -0.00223711       0.00315072
Li      -8.66000000       8.66000000      12.99000000        0      -0.00430808       0.00566229       0.00966148
Li      -6.49500000      10.82500000      10.82500000        0      -0.00428186       0.00468908       0.00298499
Li      -4.33000000      12.99000000       8.66000000        0      -0.01320368       0.02215985       0.01099752
Li      -2.33434073      15.16013062       6.36208817        0       0.01982900       0.00926209       0.01037406
Li      -0.00000000      17.32000000       4.33000000        0      -0.00610146       0.00574231      -0.01196330
Li       2.16500000      19.48500000       2.16500000        0      -0.00412503       0.00712000      -0.00581242
Li      -6.49500000       6.49500000      15.15500000        0      -0.00303790       0.00148367      -0.00705086
Li      -4.33000000       8.66000000      12.99000000        0       0.00018485      -0.00698053      -0.02092538
Li      -2.16500000      10.82500000      10.82500000        0       0.00925492       0.00144432       0.00067466
Li       0.06857573      13.05218309       8.68239907        0      -0.01926257      -0.00670786      -0.00357883
Li       2.16500000      15.15500000       6.49500000        0       0.01446160      -0.00379395       0.01226901
Li       4.33000000      17.32000000       4.33000000        0      -0.01247337       0.00952204      -0.01776537
Li      -4.16785945       4.34029272      17.45350224        0      -0.01586933      -0.03884087      -0.00495013
Li      -2.16500000       6.49500000      15.15500000        0       0.01881786      -0.00243765       0.00507228
Li       0.01420922       8.56985481      13.03205559        0      -0.01075177       0.02660891       0.00324384
Li       2.02110496      10.89300476      10.66550897        0       0.02673243      -0.01551984       0.01534389
Li       4.33000000      12.99000000       8.66000000        0      -0.01497422       0.00545686       0.00525099
Li       6.38107585      15.19037176       6.46604362        0       0.01823564      -0.00174547       0.00926470
Li      -2.16500000       2.16500000      19.48500000        0       0.00600869       0.00055151      -0.00614430
Li      -0.01050095       4.28720357      17.30737274        0      -0.01218208       0.00618526       0.00110080
Li       2.06134003       6.51932362      15.27546674        0       0.01044521      -0.00648722      -0.02112417
Li       4.33000000       8.66000000      12.99000000        0      -0.01071430      -0.00222759       0.00115847
Li       6.36719141      10.67774293      10.65797116        0       0.02579055       0.02448353       0.01522501
Li       8.62293939      12.90134494       8.68252470        0      -0.01382946       0.01293464      -0.00846414
Li       0.12719732       0.04287725      21.63211422        0      -0.01519276      -0.00010262      -0.02057802
Li       2.27516818       2.07179821      19.46311700        0      -0.00821142       0.01281319       0.01986473
Li       4.33000000       4.33000000      17.32000000        0       0.00438297      -0.00759751       0.00458439
Li       6.49500000       6.49500000      15.15500000        0       0.00421293      -0.00258674      -0.00168511
Li       8.63613114       8.77475354      12.87940172        0      -0.00048861      -0.01322655       0.01216443
Li      10.73024918      10.79505590      10.66585389        0       0.01503687      -0.01932122       0.01206240
216
Lattice="-12.99 12.99 12.99 12.99 -12.99 12.99 12.99 12.99 -12.99" Properties=species:S:1:pos:R:3:tags:I:1:forces:R:3 energy=-297.18532275388236 stress="0.016351398691599767 3.376949181580238e-05 -4.058575279621978e-05 3.376949181580238e-05 0.016309351185690133 -5.753054006547457e-05 -4.058575279621978e-05 -5.753054006547457e-05 0.016271214518230215" free_energy=-297.18532275388236 pbc="T T T"
Li       0.00483658       0.12091501       0.64954600        0       0.01228732      -0.01257291      -0.04167214
Li       2.17999315       2.19117046      23.57561982        0       0.03223489       0.00213328       0.03006693
Li      -8.30545669      16.96307346       8.51162702        0      -0.04428542       0.02396751       0.01454312
Li       6.69481857       6.71919533      19.20582391        0      -0.00711732      -0.03544818       0.02615778
Li       8.78411353       8.51524400      17.19195899        0      -0.00618243       0.00800830       0.01753121
Li      10.88600736      10.73459166     -10.72153260        0      -0.01097447      -0.00056441       0.01017747
Li       2.16500000      -2.16500000       2.16500000        0       0.00881336      -0.01847677       0.00754563
Li       4.40660856       0.01261206       0.10498151        0      -0.03078092       0.02965523      -0.04555664
Li       6.47735817       2.27173317      -1.94179384        0       0.01982801      -0.03109502      -0.02965857
Li      -4.22918939      17.30641406       8.41686291        0      -0.02593770      -0.01740766       0.02345940
Li      -1.92608714      19.26464778       6.64297103        0      -0.05496898       0.06816194      -0.05900248
Li       0.02745135      21.42327563       4.26708024        0      -0.00045373       0.03036597      -0.00105471
Li       4.08182070      21.52482331       4.34761918        0       0.02592784       0.02487908       0.01449742
Li       6.23400975      -1.73596177       2.19344709        0       0.05006701      -0.06248661       0.01242698
Li       8.67737845       0.13145628       0.01895161        0      -0.02150152      -0.01531041      -0.00549617
Li      10.82500000       2.16500000      -2.16500000        0      -0.00497651       0.00705110       0.01167311
Li      12.93016304       4.50276395      -4.49620541        0       0.04830319      -0.06578409       0.05557326
Li      15.15500000       6.49500000      -6.49500000        0      -0.00808713      -0.01381542       0.00699229
Li       6.49500000      -6.49500000       6.49500000        0       0.00033525       0.00783231       0.00862544
Li       8.62879314      -3.58868792       4.73971939        0      -0.00339019      -0.14121178      -0.12266754
Li      -2.26623143      10.77525229      14.88779066        0       0.03065149       0.02310952       0.04629681
Li      12.99000000       0.00000000      -0.00000000        0      -0.01155854      -0.00284739      -0.01740603
Li      15.22167570       2.20249727      -2.16937055        0      -0.02182195      -0.00977591       0.00727827
Li       4.19963584      17.20369175       8.76063349        0       0.02375758       0.02590809      -0.02089011
Li      -4.19546503       4.33627581      21.11375149        0       0.01008382       0.03740830       0.10174268
Li      10.82500000      -6.49500000       6.49500000        0       0.02193405       0.03194198      -0.00616975
Li      -0.14852538       8.61404437      17.30487668        0       0.01355609       0.02505104      -0.02276064
Li       2.08317535      10.69021577      15.13687582        0       0.01041309       0.02451127       0.01539110
Li      17.32000000       0.00000000       0.00000000        0       0.00517771       0.01221679      -0.00598359
Li      19.64708915       2.42824646      -2.05917084        0      -0.01403239      -0.04335845      -0.03036062
Li      23.68576596       2.23832816      -2.21949844        0       0.02490622       0.01028656      -0.00135107
Li      12.99000000      -8.66000000       8.66000000        0      -0.04853842      -0.03698051       0.00587149
Li       1.85160828       6.30814634      19.42945463        0       0.00742249       0.01591569      -0.05169004
Li      17.32000000      -4.33000000       4.33000000        0      -0.01081127      -0.00838253      -0.01076616
Li      19.48500000      -2.16500000       2.16500000        0      -0.00015867       0.02023306       0.01570816
Li      21.65000000      -0.00000000       0.00000000        0      -0.00834551      -0.00516168       0.00746796
Li      -2.16500000       2.16500000       2.16500000        0      -0.00448626       0.00904667       0.04453779
Li       0.07321786       4.37601297       0.03739786        0      -0.05979007      -0.02273624       0.05033931
Li       1.86821246       6.34981715      -1.62398893        0       0.07686265       0.01446167      -0.11442326
Li      17.15979715      -4.31263028       8.65803402        0       0.02107404       0.02622858       0.00625540