216
Lattice="-12.99 12.99 12.99 12.99 -12.99 12.99 12.99 12.99 -12.99" Properties=species:S:1:pos:R:3:tags:I:1:forces:R:3 energy=-298.2084451219758 stress="0.016855036148902606 -2.825565007574718e-06 1.0575657221844999e-06 -2.825565007574718e-06 0.01685671634196597 -2.789735731769377e-06 1.0575657221844999e-06 -2.789735731769377e-06 0.016848182077621576" free_energy=-298.2084451219758 pbc="T T T"
Li      -0.00960994       0.05204027       0.07343364        0      -0.00223437      -0.00247754      -0.00747413
Li       2.25191487       2.21828156      -2.16769102        0      -0.01289043      -0.00038425       0.00230538
Li       4.40400675       4.31887653      -4.30262692        0      -0.01564569      -0.00252668       0.00143473
Li       6.45169735       6.52496021      19.44926893        0       0.00571687      -0.00687590       0.00037010
Li      -4.30121959      21.52407088       4.35849152        0       0.00103110       0.01441971      -0.00322854
Li      10.86369929      10.81354310     -10.76869021        0      -0.00594521       0.00096625      -0.00428701
Li       2.16500000      -2.16500000       2.16500000        0      -0.00579710      -0.00530732      -0.00346004
Li      -8.59831398      13.03060786      12.90209959        0      -0.00486557      -0.00246990       0.01195592
Li       6.49500000       2.16500000      -2.16500000        0       0.00111315       0.00361771       0.00019744
Li      -4.26607464      17.30944554       8.58524108        0      -0.00972705       0.00024458       0.00888153
Li      -2.09073187      19.43129491       6.51800567        0      -0.00194181       0.00532994      -0.00299298
Li       0.01425064      21.60457579       4.27758195        0      -0.00221262      -0.00253409       0.01201570
Li       4.31733126      21.58568329       4.33630667        0      -0.00350168       0.01195192       0.00544625
Li       6.51858815      -2.09429762       2.20622224        0       0.00012348      -0.01389755      -0.00096947
Li       8.66000000       0.00000000       0.00000000        0      -0.00240012      -0.00080624      -0.00633679
Li      10.82500000       2.16500000      -2.16500000        0      -0.00233192      -0.00298764      -0.00361139
Li      12.99000000       4.33000000      -4.33000000        0      -0.00263823      -0.00790906      -0.00047424
Li      15.10222696       6.48475208      -6.39002049        0       0.00481746       0.00017813      -0.01934211
Li       6.49500000      -6.49500000       6.49500000        0       0.00415717      -0.00095769       0.00573520
Li       8.73197086      -4.29990814       4.38880645        0      -0.01115874       0.00459186      -0.00772145
Li      10.82500000      -2.16500000       2.16500000        0      -0.00109313      -0.00320001       0.00582869
Li      -0.01349012      12.92399897      12.97401425        0       0.00402147       0.01422047       0.00231562
Li       2.22065547      15.12888167      10.80098111        0      -0.01754283       0.00126657       0.00149834
Li      17.32000000       4.33000000      -4.33000000        0       0.00144882       0.00264163       0.00308024
Li       8.64223306      -8.60618668       8.61447154        0       0.00625038      -0.01041339       0.00383600
Li      10.82500000      -6.49500000       6.49500000        0      -0.00053320       0.00501969       0.00096887
Li      12.99000000      -4.33000000       4.33000000        0      -0.00145623       0.00252070      -0.00632509
Li      15.15500000      -2.16500000       2.16500000        0      -0.00918102       0.00048915       0.00376424
Li      17.24971708       0.06093002      -0.01095547        0       0.01044600      -0.01357839       0.00052776
Li      19.56444946       2.15389194      -2.10333735        0      -0.01419834       0.01132796      -0.01770989
Li      -2.18408855       2.21495529      23.76390023        0      -0.00620536      -0.00199315       0.00783297
Li      12.99000000      -8.66000000       8.66000000        0      -0.00844002      -0.00294108       0.01645014
Li      15.15023694      -6.52900599       6.57278493        0       0.00101940       0.00464748      -0.02579884
Li       4.25635841       8.64213399      17.24933014        0       0.00619488      -0.00022377       0.01037935
Li      19.48500000      -2.16500000       2.16500000        0      -0.00875182      -0.00050517       0.00450907
Li      21.65000000      -0.00000000       0.00000000        0       0.00671721      -0.00679686      -0.00102584
Li      -2.16500000       2.16500000       2.16500000        0      -0.00273065       0.00862741       0.00405277
Li       0.00000000       4.33000000      -0.00000000        0      -0.00922602      -0.00183756       0.00216767
Li       2.02224511       6.45192998      -2.00825720        0       0.02049936       0.00240691      -0.02485237
Li       4.35382806       8.72633738      -4.34000971        0      -0.00518536      -0.00715653       0.01371249
Li       6.46830542      10.82412105      -6.45336700        0       0.00276216       0.00003405      -0.00490182
Li       8.66000000      12.99000000      -8.66000000        0       0.00211703       0.00573098      -0.00307729
Li      12.91057013      13.06721762      -8.74294619        0       0.01296410      -0.00578375       0.00863324
Li       2.17238248       2.27511206       2.16326725        0       0.00098446      -0.01205810      -0.00282323
Li       4.33000000       4.33000000       0.00000000        0      -0.00097326       0.00434873      -0.00355308
Li       6.49500000       6.49500000      -2.16500000        0       0.01096005      -0.00046701      -0.00011326
Li       8.66000000       8.66000000      -4.33000000        0      -0.00090095      -0.00651768      -0.00276642
Li      10.82500000      10.82500000      -6.49500000        0      -0.00058969       0.00379134      -0.00280822
Li       2.16500000      -2.16500000       6.49500000        0       0.00045790      -0.00339935      -0.00083938
Li       4.35213964      -0.03737701       4.36351992        0       0.00258077       0.01206649       0.00570689
Li       6.49500000       2.16500000       2.16500000        0       0.00109704      -0.00467352      -0.00445034
Li       8.66000000       4.33000000       0.00000000        0       0.00349180       0.00071202       0.00759509
Li      10.85790495       6.46893975      -2.20009116        0      -0.00120910       0.00210013       0.00068598
Li      12.99000000       8.66000000      -4.33000000        0       0.00182434      -0.00338446      -0.00062404
Li      17.32611324       8.61084086      -4.36337070        0       0.00011885       0.01061516       0.00487820
Li       6.49500000      -2.16500000       6.49500000        0      -0.00092999      -0.00077609       0.00527965
Li       8.64175134      -0.08193298       4.41549442        0       0.00322871       0.00893647      -0.01170402
Li      10.82500000       2.16500000       2.16500000        0       0.00029426      -0.00655117      -0.00178675
Li      12.97881361       4.27673671       0.03841842        0       0.00500292       0.01085979      -0.00311915
Li      15.15500000       6.49500000      -2.16500000        0       0.00013951      -0.00241391      -0.00231619
Li       6.49500000      -6.49500000      10.82500000        0       0.00088770       0.00342465       0.00738227
Li       8.63142575      -4.23514982       8.68541005        0       0.01264879      -0.01937373      -0.01665033
Li      10.83058929      -2.24881818       6.43624124        0       0.00148801       0.01710958       0.01126978
Li      12.96146869       0.01530526       4.27070795        0       0.00571808      -0.00442751       0.00902781
Li      15.15500000       2.16500000       2.16500000        0      -0.00088374      -0.00029612       0.00053684
Li      17.31802453       4.41207111       0.04192559        0      -0.00481873      -0.01857954      -0.00799171
Li       8.76365162      -8.56069431      13.00303891        0      -0.01736152      -0.00976670      -0.00048899
Li      10.82500000      -6.49500000      10.82500000        0       0.00600053       0.00236087       0.00789770
Li      12.93145349      -4.26109818       8.69117288        0       0.00553122      -0.00911282       0.00148946
Li      15.11166813      -2.12738365       6.46762263        0       0.00410097      -0.00217463      -0.00082264
Li      17.30080204       0.00659829       4.34293054        0       0.00121196       0.00527158      -0.00315532
Li      19.48500000       2.16500000       2.16500000        0      -0.00117256       0.00557883      -0.00333380
Li      21.58354409       4.37292668       4.30638532        0       0.00382333      -0.00742526      -0.00036787
Li      10.84914711      -6.52204495      15.10226860        0       0.00788825       0.00507065       0.01086002
Li       0.00000000       8.66000000      -0.00000000        0      -0.00240677      -0.00344003      -0.00115355
Li       2.13931491      10.83394826      -2.11710207        0      -0.00061876       0.00659103      -0.01137936
Li       4.33000000      12.99000000      -4.33000000        0       0.00411385      -0.00392809      -0.00768791
Li       6.49500000      15.15500000      -6.49500000        0       0.00083738       0.00077083       0.00161452
Li      10.75966007      15.11069473      -6.52885434        0      -0.00073166       0.00737617       0.00271014
Li       0.07708012       4.29572309       4.31119090        0      -0.00815882       0.00175579      -0.00649234
Li       2.08645762       6.45126063       2.08205199        0       0.01129952       0.00019806       0.00731600
Li       4.32677370       8.58767988      -0.09278975        0      -0.00676686      -0.00148379       0.02366205
Li       6.49500000      10.82500000      -2.16500000        0       0.00482465       0.00407870      -0.00299454
Li       8.58715682      13.06773855      -4.28780620        0       0.01205077      -0.01835534      -0.01064375
Li       0.00000000      -0.00000000       8.66000000        0       0.00488809       0.00447685       0.00220138
Li       2.24567675       2.16876337       6.47440136        0      -0.00496342      -0.00236548       0.00279822
Li       4.33000000       4.33000000       4.33000000        0      -0.00777077       0.00231534      -0.00060679
Li       6.49500000       6.49500000       2.16500000        0       0.00311589      -0.00652614      -0.00993643
Li       8.68778831       8.61626402       0.00344443        0      -0.00182521       0.00565746       0.00193884
Li      10.81352676      10.81023598      -2.20873542        0       0.00089678       0.00411414       0.00815385
Li       2.22070392      -2.10961646      10.79808149        0      -0.01120280      -0.01223360      -0.00105903
Li       4.30279873      -0.02997304       8.62450498        0       0.00491398       0.00504783       0.00612039
Li       6.38169847       2.11352885       6.56486609        0       0.01486084       0.00321716      -0.00882225
Li       8.71298132       4.31758476       4.27460708        0      -0.00851193       0.01198142       0.00735558
Li      10.87343402       6.52608427       2.21705675        0      -0.00659613      -0.00677593      -0.00856451
Li      13.00773449       8.66533588       0.05712820        0      -0.00027332       0.00838106      -0.00539065
Li       4.33000000      -4.33000000      12.99000000        0       0.00328150      -0.00022051      -0.00060398
Li       6.55880920      -2.13883566      10.75114012        0      -0.01511373      -0.00395915       0.01003932
Li       8.69126365      -0.00708817       8.66344423        0      -0.00307757      -0.00894995      -0.00688388
Li      10.82500000       2.16500000       6.49500000        0       0.00994638       0.00234900       0.00292502
Li      13.01143863       4.32105711       4.29866068        0      -0.00790090      -0.00768679       0.00034002
Li      15.17185019       6.48275993       2.13842346        0      -0.00625779      -0.00155709       0.00383971
Li      19.43663453       6.46554921       2.06516121        0       0.00200968       0.00604729       0.01589051
Li       8.60271867      -4.39598019      13.06373746        0       0.01132925       0.00615959      -0.01707263
Li      10.84353106      -2.14223007      10.84886302        0      -0.00515986       0.00201805       0.00221975
Li      12.99000000       0.00000000       8.66000000        0      -0.00151665      -0.00648772      -0.00195482
Li      15.15500000       2.16500000       6.49500000        0      -0.00048616      -0.00060357      -0.00007487
Li      17.32190242       4.26643990       4.31243919        0      -0.00253824       0.00910922      -0.00480023
Li      -6.49500000       6.49500000       6.49500000        0       0.00340786       0.00055017       0.00110753
Li      -4.33000000       8.66000000       4.33000000        0      -0.00473430      -0.00383934      -0.00563330
Li      -2.16500000      10.82500000       2.16500000        0       0.00037595      -0.00458799       0.00395548
Li       0.04969013      12.97527497       0.05510333        0      -0.00884593       0.00004323      -0.00684832
Li      15.16838423       2.13882882      10.76408562        0      -0.00289540       0.00290553       0.01667447
Li       4.37855765      17.35103752      -4.31728515        0      -0.00984706      -0.01287208      -0.00520904
Li      -4.30180627       4.33954032       8.61977141        0      -0.00688452      -0.00403681       0.00090502
Li      -2.18136777       6.52994098       6.44186265        0       0.00214176      -0.00438002       0.01118952
Li       0.09263598       8.66078438       4.43320730        0      -0.01246687       0.00113234      -0.01350834
Li       2.12437441      10.76479943       2.33227644        0       0.00889712       0.01654067      -0.02747757
Li       4.33425207      13.08351842       0.11119832        0      -0.00730077      -0.01553670      -0.01608567
Li       6.51216923      15.07868860      -2.19343572        0      -0.00248623       0.01662111       0.01238714
Li      -2.16500000       2.16500000      10.82500000        0      -0.00036676      -0.00309206       0.00677857
Li      -0.05359918       4.25351656       8.70765445        0       0.00863824       0.00662010      -0.01102359
Li       2.16500000       6.49500000       6.49500000        0       0.00080683      -0.00253377       0.00293359
Li       4.30948701       8.63271360       4.28261308        0       0.00173072       0.00056144       0.01204306
Li       6.49500000      10.82500000       2.16500000        0       0.00480968      -0.00701755      -0.00305863
Li       8.76700036      12.95487772       0.00662221        0      -0.01813138       0.01003024      -0.00504955
Li      13.01978835      12.94556458       0.00435671        0      -0.00616164       0.01128761      -0.00066575
Li       2.16500000       2.16500000      10.82500000        0       0.00314873      -0.01094592       0.00080701
Li       4.33000000       4.33000000       8.66000000        0       0.00549362      -0.00238996       0.00212230
Li       6.56511540       6.47859983       6.51897096        0      -0.01598983      -0.00019795      -0.00659482
Li       8.59915894       8.58427919       4.25380952        0       0.01629657       0.01277844       0.01281446
Li      10.82500000      10.82500000       2.16500000        0       0.00028173      -0.00578224      -0.00091760
Li       2.21408081      -2.08492017      15.15315304        0      -0.00341586      -0.00571274      -0.01131809
Li       4.35112906      -0.07782533      12.89793119        0       0.00276488       0.01621461       0.01770345
Li       6.49500000       2.16500000      10.82500000        0      -0.00270250      -0.00226694      -0.00801524
Li       8.64462554       4.33607511       8.70172187        0       0.00188432      -0.00742396      -0.00590250
Li      10.82500000       6.49500000       6.49500000        0      -0.00271610      -0.00384797      -0.00368884
Li      12.93779009       8.75885229       4.25478420        0       0.01760585      -0.01396428       0.00094321
Li      17.23459974       8.66042304       4.28318062        0       0.01513643       0.00424933       0.00389281
Li       6.49500000      -2.16500000      15.15500000        0      -0.00710347       0.00284347      -0.00181469
Li       8.66000000       0.00000000      12.99000000        0      -0.00352488       0.00181135       0.00343362
Li      10.86983670       2.10062138      10.76024967        0      -0.00592608       0.01218101       0.01160722
Li      12.99000000       4.33000000       8.66000000        0      -0.00245068       0.00072627      -0.00058499
Li      15.08674075       6.45251879       6.47380029        0       0.00851841      -0.00319094       0.00440228
Li       4.30696819      -4.25522169      21.61985326        0      -0.00159060      -0.01306360       0.01115355
Li      -6.49500000      10.82500000       6.49500000        0      -0.00248189       0.00504856      -0.00320120
Li       8.57968121      -0.00299653      17.23663067        0       0.01001405       0.00121462       0.01186306
Li      10.77186580       2.23934274      15.16600980        0       0.00514789      -0.01354649       0.00154005
Li       0.00000000      17.32000000      -0.00000000        0       0.00355595      -0.00215260      -0.00449031
Li      15.15500383       6.49629505      10.81950230        0       0.00065410       0.00020696       0.00147518
Li      -6.49500000       6.49500000      10.82500000        0       0.00422648       0.00755802      -0.00213989
Li      -4.29210457       8.59508141       8.62812124        0      -0.00509619       0.01012860      -0.00036569
Li      -2.18961129      10.81787074       6.50439422        0       0.00118966      -0.00168589      -0.00359635
Li      -0.00000000      12.99000000       4.33000000        0       0.00232045      -0.00609022      -0.00187710
Li       2.16789081      15.08500789       2.08921978        0       0.00449478       0.01687888       0.01796904
Li       4.33000000      17.32000000       0.00000000        0      -0.00317202      -0.00710445      -0.00019590
Li      -4.24937299       4.31049317      13.06209507        0      -0.00667729       0.00564506      -0.01937774
Li      -2.16500000       6.49500000      10.82500000        0      -0.00250313      -0.00280946       0.00429536
Li       0.00375581       8.72270002       8.61996683        0       0.00113469      -0.00308816      -0.00334155
Li       2.22725564      10.83036904       6.42194667        0      -0.00874058       0.00176941       0.00895155
Li       4.37093188      12.95601817       4.22034833        0      -0.00788201       0.00348171       0.01281345
Li       6.47776416      15.18903036       2.11216543        0       0.00867143      -0.00704492       0.00648375
Li      -2.15390648       2.22273201      15.12108553        0       0.00127764      -0.01628282       0.00363646
Li      -0.03250483       4.29390855      13.01569694        0       0.00109412       0.00613554       0.00138840
Li       2.23453678       6.50794247      10.84706879        0      -0.01577180      -0.00778468       0.00076988
Li       4.26442832       8.64339133       8.67954747        0       0.01367313      -0.00011691      -0.01112645
Li       6.49500000      10.82500000       6.49500000        0      -0.00714554      -0.00464423      -0.00237383
Li       8.66000000      12.99000000       4.33000000        0      -0.00456590       0.00751530      -0.00061158
Li       0.05931100       0.02785223      17.24415380        0      -0.00897310       0.00346747       0.00685783
Li       2.22888151       2.14981813      15.12842380        0      -0.00493515      -0.00341331      -0.00636486
Li       4.36827547       4.30589251      13.02892515        0       0.00117354       0.00674776       0.00031241
Li       6.48972927       6.41649501      10.84054251        0      -0.00761590       0.01247019      -0.00323612
Li       8.58295925       8.66349032       8.61418332        0       0.01349863      -0.00584793       0.00993689
Li      10.82500000      10.82500000       6.49500000        0      -0.00724243       0.00087177       0.00183294
Li       2.19940288      -2.01456835      19.58078275        0      -0.01059444      -0.01576425      -0.02357186
Li       4.37652011       0.08233504      17.25549932        0      -0.00525160      -0.00973720       0.01431419
Li       6.50184030       2.14214893      15.19316049        0       0.00190898       0.01034481      -0.00946488
Li       8.61341713       4.33176843      13.03502449        0       0.00216168      -0.00559789      -0.00762070
Li      10.80773414       6.42227588      10.77876125        0      -0.00076686       0.01142689       0.00813598
Li      12.97567930       8.55408418       8.76192840        0       0.00288658       0.01690275      -0.01071408
Li       2.14634650      23.80898083      -2.10797068        0       0.00640028       0.00082449      -0.01564989
Li       4.25968958       0.00989203      21.63382427        0       0.01662133       0.00372064       0.01297030
Li       6.53941206       2.14120047      19.42568680        0       0.00030883       0.00423698      -0.00057324
Li      -4.33000000      17.32000000       4.33000000        0      -0.00606758       0.00344116       0.00005654
Li      -2.16500000      19.48500000       2.16500000        0       0.00183414      -0.00998631       0.00370569
Li      -0.00000000      21.65000000       0.00000000        0      -0.00031674      -0.00746145       0.00120305
Li      -8.66000000       8.66000000      12.99000000        0       0.00049808      -0.00198182       0.00215043
Li      -6.49365554      10.79286575      10.77139178        0      -0.00053581       0.00689720       0.00193978
Li      -4.33000000      12.99000000       8.66000000        0       0.00378469       0.00156572       0.00133233
Li      -2.18277892      15.13334567       6.51317009        0       0.00350154       0.00691109      -0.00642062
Li      -0.00000000      17.32000000       4.33000000        0      -0.00375170       0.00006357       0.00370263
Li       2.17379161      19.47609324       2.20962788        0      -0.00135153       0.00242486      -0.01530309
Li      -6.49500000       6.49500000      15.15500000        0       0.00038496      -0.00950218       0.00553685
Li      -4.33000000       8.66000000      12.99000000        0       0.00285570       0.00191315      -0.00153757
Li      -2.16500000      10.82500000      10.82500000        0       0.00299793      -0.00238535      -0.00438467
Li      -0.00000000      12.99000000       8.66000000        0      -0.00242413      -0.00575344      -0.00199045
Li       2.09704344      15.08976837       6.53029428        0       0.01081797       0.00803154       0.00062927
Li       4.33000000      17.32000000       4.33000000        0      -0.00101182       0.00142825       0.00337472
Li       8.67742235      17.23045169       4.47009829        0      -0.00079281       0.01320599      -0.02427713
Li      -2.16500000       6.49500000      15.15500000        0       0.00385581      -0.00692422       0.00083749
Li       0.00000000       8.66000000      12.99000000        0       0.00279837       0.00647339       0.00298940
Li       2.09305248      10.85900238      10.74525448        0       0.01147936      -0.00562973       0.01478528
Li       4.33000000      12.99000000       8.66000000        0       0.00061378      -0.00286556       0.00755294
Li       6.51729728      15.15421692       6.60501207        0       0.00408639      -0.00239427      -0.01330818
Li      -2.16500000       2.16500000      19.48500000        0       0.00313565      -0.00102630       0.00414766
Li      -0.00666964       4.26270545      17.13422264        0      -0.00281105       0.00659009       0.02643375
Li       2.16500000       6.49500000      15.15500000        0       0.00153553      -0.00654765      -0.01003326
Li       4.24468458       8.61870144      13.06442893        0       0.00848496      -0.00106987      -0.01025268
Li       6.43109571      10.75137146      10.74148558        0       0.01001042       0.01497309       0.01053948
Li       8.64146969      12.94567247       8.67126235        0      -0.00081592       0.00135198      -0.00381676
Li      -0.00000000       0.00000000      21.65000000        0       0.00381547       0.01344712       0.00230290
Li       2.09893031       2.22321430      19.47290355        0       0.01283546      -0.01517848      -0.00348720
Li       4.41176307       4.32786285      17.23428001        0      -0.01166709      -0.00712798       0.00695033
Li       6.46522049       6.41727060      15.18804114        0       0.00336305       0.00939182      -0.00369398
Li       8.66000000       8.66000000      12.99000000        0       0.00098703      -0.00903025      -0.00081434
Li      10.77762459      10.81002795      10.74542695        0       0.00777702      -0.00213433       0.00982899
216
Lattice="-12.99 12.99 12.99 12.99 -12.99 12.99 12.99 12.99 -12.99" Properties=species:S:1:pos:R:3:tags:I:1:forces:R:3 energy=-298.05278571359247 stress="0.01677780964123557 3.449884351242019e-06 -1.5780891080856321e-06 3.449884351242019e-06 0.016772463944906033 -5.921576592752845e-06 -1.5780891080856321e-06 -5.921576592752845e-06 0.016753513936035976" free_energy=-298.05278571359247 pbc="T T T"
Li       0.01210042      -0.00346669       0.15535082        0      -0.00304207       0.00475704      -0.01614546
Li       2.27407941       2.32974169      -2.13847388        0      -0.01916092      -0.01638330      -0.00674724
Li      -8.53436080      17.22520663       8.63659329        0      -0.01857033       0.00766043       0.00300790
Li       6.44382068       6.55315701      19.42641041        0       0.00535017      -0.01243640       0.00462451
Li      -4.29875517      21.41007619       4.32960627        0      -0.00141478       0.03277643       0.00226888
Li      10.91738195      10.76720840     -10.72244041        0      -0.01696675       0.00297112      -0.00933063
Li       2.16500000      -2.16500000       2.16500000        0      -0.00541599      -0.01660789      -0.00111592
Li      -8.65404246      12.94602592      12.84618989        0       0.00847873       0.01241000       0.01975682
Li       6.57944792       2.23900675      -2.17612347        0      -0.01005392      -0.00416109       0.00158948
Li      -4.26607464      17.30944554       8.58524108        0      -0.00554910      -0.00178735       0.00595414
Li      -2.10863579      19.47656129       6.44544634        0       0.00244009      -0.00356445       0.00673448
Li      -0.01467674      21.57354617       4.20539788        0      -0.00237924      -0.00132231       0.02781861
Li       4.38909088      21.44486454       4.36592586        0      -0.01681773       0.03511268       0.00783849
Li       6.48339202      -2.08424286       2.21758406        0       0.00917520      -0.02308093       0.00209048
Li       8.62831962       0.03685862      -0.03407682        0       0.00518730      -0.00908667      -0.01005244
Li      10.82500000       2.16500000      -2.16500000        0      -0.01285704      -0.00036370      -0.00260532
Li      12.93265983       4.35995010      -4.26161121        0       0.01237560      -0.01594356      -0.00970456
Li      15.04945392       6.47450415      -6.28504098        0       0.01447925       0.00422009      -0.03713277
Li       6.49500000      -6.49500000       6.49500000        0       0.01360622      -0.00579783       0.01398326
Li       8.80210008      -4.23024406       4.50625563        0      -0.02998740       0.00076001      -0.02457321
Li      -2.22519625      10.83655349      15.13337868        0       0.00806730      -0.00700408       0.01205410
Li      -0.02698024      12.85799795      12.95802849        0       0.00856565       0.02642271       0.00220454
Li       2.27631093      15.10276335      10.77696222        0      -0.03070608       0.01274186       0.00525755
Li      17.25176781       4.40892578      -4.27701868        0       0.01663298      -0.00906263      -0.00559541
Li       8.63375593      17.32662273       8.62059285        0       0.01202054      -0.00616887       0.00446159
Li      10.82500000      -6.49500000       6.49500000        0       0.00319150       0.00300138       0.00638338
Li      12.99000000      -4.33000000       4.33000000        0      -0.00705031       0.00336432      -0.00757255
Li      15.14170879      -2.14114945       2.20336457        0      -0.01099520      -0.00281493       0.00486772
Li      17.17943416       0.12186003      -0.02191094        0       0.02070703      -0.02679332       0.00017703
Li      19.56444946       2.15389194      -2.10333735        0      -0.01942288       0.01195425      -0.01776422
Li      -2.18408855       2.21495529      23.76390023        0      -0.01074345      -0.00104711       0.00938776
Li      12.99000000      -8.66000000       8.66000000        0      -0.01228886      -0.00350683       0.02311268
Li      15.14547387      -6.56301199       6.65056986        0      -0.00007322       0.00287539      -0.03748840
Li       4.25635841       8.64213399      17.24933014        0      -0.00081033       0.00346215       0.00962197
Li      19.48500000      -2.16500000       2.16500000        0      -0.01672886      -0.00531259       0.00379075
Li      21.65000000      -0.00000000       0.00000000        0       0.01107184      -0.00749158      -0.00087819
Li      -2.16500000       2.16500000       2.16500000        0      -0.00345800       0.00878291       0.00724825
Li       0.00000000       4.33000000      -0.00000000        0      -0.00443090       0.00346497       0.00725990
Li       2.09598256       6.47211752      -1.94862562        0       0.00253542      -0.00536821      -0.04018640
Li      17.26501433      -4.20177426       8.67405660        0       0.00462876      -0.01093613       0.01753632