LAMMPS (29 Sep 2021 - Update 3)
OMP_NUM_THREADS environment is not set. Defaulting to 1 thread. (src/comm.cpp:98)
  using 1 OpenMP thread(s) per MPI task
units	metal
atom_style	full

read_data	mixed.data
Reading data file ...
  orthogonal box = (0.0000000 0.0000000 0.0000000) to (19.174564 18.334371 80.209106)
  2 by 1 by 8 MPI processor grid
  reading atoms ...
  864 atoms
Finding 1-2 1-3 1-4 neighbors ...
  special bond factors lj:    0        0        0       
  special bond factors coul:  0        0        0       
     0 = max # of 1-2 neighbors
     0 = max # of 1-3 neighbors
     0 = max # of 1-4 neighbors
     1 = max # of special neighbors
  special bonds CPU = 0.001 seconds
  read_data CPU = 0.019 seconds

pair_style	quip
pair_coeff	* * /ocean/projects/cts180021p/wuziqi/clease/mint-PD/PhaseDiagram-Clease/Liquid/GAP_potential/gap_LiKCl.xml "Potential xml_label=GAP_2021_9_27_0_1_17_37_618" 17 19 3

neighbor	0.3 bin
neigh_modify	delay 10

timestep	0.001
compute	msd all msd
thermo_style	custom step temp pe etotal press vol c_msd[4]
thermo	10
dump	1 all custom 10 xyz-mix.dump type id x y z
dump	2 all custom 10 force-mix.dump type id fx fy fz

fix     1 all nve
run     2000
Neighbor list info ...
  update every 1 steps, delay 10 steps, check yes
  max neighbors/atom: 2000, page size: 100000
  master list distance cutoff = 6.22
  ghost atom cutoff = 6.22
  binsize = 3.11, bins = 7 6 26
  1 neighbor lists, perpetual/occasional/extra = 1 0 0
  (1) pair quip, perpetual
      attributes: full, newton on
      pair build: full/bin
      stencil: full/bin/3d
      bin: standard
Per MPI rank memory allocation (min/avg/max) = 8.893 | 8.896 | 8.899 Mbytes
Step Temp PotEng TotEng Press Volume c_msd[4] 
       0            0   -7433.4988   -7433.4988   -3276.2935    28197.798            0 
      10    52.404798   -7439.3508    -7433.505   -3251.1444    28197.798 0.00037653742 
      20    139.99986   -7449.1283   -7433.5111   -2882.4638    28197.798 0.0046525409 
      30    184.89844   -7454.1347    -7433.509   -2125.0677    28197.798  0.015985103 
      40    208.94932   -7456.8149   -7433.5063   -1662.4669    28197.798  0.031135218 
      50    246.75939   -7461.0345   -7433.5082   -1664.6184    28197.798   0.04535964 
      60    276.85124   -7464.3928   -7433.5096   -1760.8171    28197.798  0.058304449 
      70    281.74509   -7464.9368   -7433.5077   -1780.9744    28197.798  0.071745136 
      80    278.62215   -7464.5886   -7433.5078   -1830.5145    28197.798  0.086537519 
      90    271.63877   -7463.8088   -7433.5071   -1784.3037    28197.798   0.10323335 
     100    268.54351   -7463.4633   -7433.5068   -1527.9053    28197.798   0.12174182 
     110    273.48277   -7464.0152   -7433.5078   -1273.3517    28197.798   0.14167857 
     120    278.69582   -7464.5968   -7433.5079   -1205.0202    28197.798   0.16248057 
     130    280.47217   -7464.7953   -7433.5082   -1323.1784    28197.798   0.18317475 
     140    277.20241   -7464.4295   -7433.5071   -1372.0801    28197.798   0.20283031 
     150    282.78617    -7465.053   -7433.5078   -1505.2169    28197.798   0.22058727 
     160     290.1136   -7465.8712   -7433.5086   -1674.0159    28197.798   0.23758181 
     170    284.88573   -7465.2876   -7433.5082   -1706.4981    28197.798   0.25570249 
     180    274.35333   -7464.1113   -7433.5068   -1718.6147    28197.798    0.2744632 
     190    276.48598   -7464.3491   -7433.5066   -1804.1052    28197.798   0.29182989 
     200    291.90348   -7466.0708   -7433.5085   -1940.0736    28197.798   0.30710935 
     210    297.83834   -7466.7336   -7433.5092    -1986.102    28197.798    0.3219422 
     220    286.77102   -7465.4971   -7433.5074   -2078.2599    28197.798   0.33684136 
     230    279.78719   -7464.7179   -7433.5072   -2190.0553    28197.798   0.35047641 
     240    281.73444   -7464.9357   -7433.5078    -2262.753    28197.798   0.36287355 
     250    285.80956   -7465.3901   -7433.5076    -2332.639    28197.798   0.37537005 
     260    292.11854   -7466.0939   -7433.5076   -2475.3781    28197.798    0.3890125 
     270    301.52725   -7467.1437   -7433.5079    -2617.426    28197.798   0.40407374 
     280    309.73897   -7468.0605   -7433.5086   -2752.0145    28197.798   0.42025778 
     290     308.0229   -7467.8686   -7433.5082   -2715.4369    28197.798   0.43692842 
     300    301.85764   -7467.1796   -7433.5069   -2565.9773    28197.798   0.45280033 
     310    304.69869   -7467.4976    -7433.508   -2628.8465    28197.798   0.46676108 
     320     307.0623   -7467.7615   -7433.5082   -2768.8787    28197.798   0.47983687 
     330    305.41709   -7467.5778    -7433.508      -2765.1    28197.798   0.49324396 
     340    302.56991     -7467.26   -7433.5078   -2716.3178    28197.798   0.50716353 
     350    300.34229   -7467.0112   -7433.5075   -2658.0167    28197.798   0.52121437 
     360    300.13685   -7466.9889   -7433.5081   -2535.9529    28197.798    0.5349885 
     370    296.38971   -7466.5706   -7433.5079   -2515.3636    28197.798   0.54851429 
     380    291.53808   -7466.0294   -7433.5079    -2529.736    28197.798   0.56205372 
     390     290.1885   -7465.8788   -7433.5078   -2482.9536    28197.798   0.57569719 
     400    291.57655   -7466.0341   -7433.5083   -2460.7608    28197.798   0.58950816 
     410    291.81754   -7466.0603   -7433.5076   -2418.5806    28197.798   0.60282046 
     420    298.48497   -7466.8046   -7433.5081   -2435.9821    28197.798   0.61423917 
     430    304.86003   -7467.5166    -7433.509   -2500.2682    28197.798   0.62410746 
     440    300.53815   -7467.0334   -7433.5079   -2482.1647    28197.798   0.63337578 
     450    297.90616   -7466.7393   -7433.5074   -2405.1031    28197.798   0.64188608 
     460    305.04414   -7467.5363   -7433.5082   -2344.8776    28197.798   0.64994066 
     470    313.18339   -7468.4445   -7433.5084   -2312.4999    28197.798   0.65909106 
     480    315.98519   -7468.7577   -7433.5091    -2216.287    28197.798   0.67012074 
     490    307.67199   -7467.8296   -7433.5083   -2089.9887    28197.798   0.68241459 
     500    299.91726   -7466.9628   -7433.5066    -1960.647    28197.798   0.69416783 
     510    308.53611   -7467.9263   -7433.5087   -1960.4852    28197.798   0.70416346 
     520    314.23793   -7468.5623   -7433.5086    -2016.915    28197.798   0.71410879 
     530    312.42144   -7468.3595   -7433.5085   -1984.2099    28197.798   0.72571833 
     540    307.01613   -7467.7561    -7433.508   -1823.8796    28197.798   0.73855723 
     550    303.44774   -7467.3583   -7433.5082   -1689.4313    28197.798   0.75080443 
     560    302.80868   -7467.2868   -7433.5081   -1721.8734    28197.798   0.76028881 
     570    306.14156   -7467.6591   -7433.5086   -1896.0317    28197.798   0.76577262 
     580    306.93991    -7467.748   -7433.5084   -2073.7003    28197.798   0.76829475 
     590    304.78082   -7467.5068   -7433.5081   -2160.3833    28197.798   0.76976388 
     600    306.71546   -7467.7219   -7433.5073    -2171.429    28197.798   0.77165514 
     610    317.96515   -7468.9782   -7433.5087   -2147.6693    28197.798   0.77469492 
     620    323.44563   -7469.5898    -7433.509   -2055.8519    28197.798   0.77920454 
     630    319.88606   -7469.1913   -7433.5076   -1961.8604    28197.798   0.78506808 
     640    323.09929   -7469.5502   -7433.5079   -1999.1427    28197.798   0.79162168 
     650    330.22678   -7470.3467   -7433.5094   -2105.0366    28197.798     0.799145 
     660    325.03755   -7469.7673   -7433.5088   -2197.0267    28197.798   0.80803625 
     670    314.39576   -7468.5789   -7433.5076   -2235.4599    28197.798    0.8167893 
     680    312.43479   -7468.3614   -7433.5088   -2308.4479    28197.798   0.82351397 
     690    307.50893   -7467.8118   -7433.5087   -2373.4206    28197.798   0.82881195 
     700    298.71836   -7466.8303   -7433.5078   -2292.5189    28197.798   0.83403601 
     710    295.74109    -7466.498   -7433.5077   -2234.6653    28197.798    0.8394168 
     720    303.45036   -7467.3579   -7433.5076   -2292.9548    28197.798   0.84453546 
     730    318.26702   -7469.0126   -7433.5094    -2401.384    28197.798   0.84949034 
     740    319.34393    -7469.132   -7433.5087   -2368.6494    28197.798   0.85545651 
     750    314.90106   -7468.6353   -7433.5076   -2297.5898    28197.798   0.86221479 
     760    318.89541   -7469.0818   -7433.5085   -2261.3305    28197.798     0.868374 
     770    321.30469   -7469.3508   -7433.5087   -2239.4677    28197.798   0.87328839 
     780     318.1442   -7468.9979   -7433.5085   -2193.7408    28197.798   0.87694376 
     790    311.48519   -7468.2551   -7433.5085   -2098.5648    28197.798   0.87939462 
     800    306.47815   -7467.6949   -7433.5068   -1982.0979    28197.798   0.88141231 
     810    316.96018   -7468.8665   -7433.5091    -1983.996    28197.798   0.88434461 
     820    319.28905   -7469.1263   -7433.5092    -1988.341    28197.798   0.89005413 
     830    311.73538   -7468.2821   -7433.5075   -1995.9118    28197.798   0.89840964 
     840    311.65354   -7468.2738   -7433.5084   -2001.3043    28197.798   0.90692957 
     850    312.67197   -7468.3873   -7433.5082   -2004.4044    28197.798    0.9137187 
     860    315.83867   -7468.7406   -7433.5083   -2079.1873    28197.798   0.91829904 
     870    320.71995   -7469.2858    -7433.509   -2168.5597    28197.798   0.92142159 
     880    320.57652   -7469.2691   -7433.5083   -2173.6428    28197.798   0.92519045 
     890    318.91447   -7469.0843   -7433.5089   -2156.9615    28197.798   0.93124072 
     900    312.61391   -7468.3805   -7433.5079    -2099.649    28197.798   0.93924677 
     910    312.10913   -7468.3244   -7433.5082   -2047.7717    28197.798   0.94673589 
     920    316.04181   -7468.7639    -7433.509   -1987.5347    28197.798   0.95198829 
     930    315.03787    -7468.652    -7433.509   -1844.1499    28197.798   0.95534233 
     940    309.80641    -7468.067   -7433.5076   -1661.8607    28197.798   0.95785559 
     950    314.68824   -7468.6122   -7433.5082   -1685.0824    28197.798   0.96071691 
     960    324.95429   -7469.7579   -7433.5087   -1820.0386    28197.798   0.96600779 
     970    331.35116   -7470.4718   -7433.5091    -1957.237    28197.798   0.97519119 
     980     329.7825   -7470.2967    -7433.509   -1901.9892    28197.798   0.98742251 
     990    322.65959   -7469.5016   -7433.5084   -1774.2109    28197.798    1.0002266 
    1000    316.60889   -7468.8269   -7433.5087   -1746.2277    28197.798     1.011533 
    1010    311.25193    -7468.229   -7433.5084   -1845.6806    28197.798      1.02082 
    1020    307.20804   -7467.7784   -7433.5089   -2068.9867    28197.798    1.0281087 
    1030    300.75734    -7467.058    -7433.508   -2239.9958    28197.798    1.0338805 
    1040    299.87308   -7466.9592   -7433.5079   -2372.2706    28197.798    1.0391214 
    1050    306.88679   -7467.7423   -7433.5086   -2472.0727    28197.798    1.0450663 
    1060    312.67567   -7468.3884    -7433.509   -2543.5336    28197.798    1.0516895 
    1070     312.8664   -7468.4091   -7433.5084   -2570.2571    28197.798    1.0572381 
    1080    312.76626   -7468.3979   -7433.5084   -2664.3961    28197.798    1.0603499 
    1090    312.81427   -7468.4033   -7433.5084   -2700.2906    28197.798    1.0615235 
    1100    312.52187   -7468.3705   -7433.5082   -2687.2237    28197.798    1.0621707 
    1110    312.75056   -7468.3963   -7433.5085   -2641.2369    28197.798    1.0634308 
    1120    311.63928   -7468.2725   -7433.5087   -2523.8064    28197.798    1.0656422 
    1130    309.44865   -7468.0275    -7433.508   -2319.4135    28197.798    1.0686259 
    1140    314.06598   -7468.5434   -7433.5089   -2167.0113    28197.798    1.0722483 
    1150    316.84713   -7468.8536   -7433.5088   -2057.6275    28197.798    1.0766087 
    1160     317.6305   -7468.9401    -7433.508   -1909.0819    28197.798    1.0804093 
    1170    324.21655   -7469.6761   -7433.5093   -1794.4319    28197.798    1.0823291 
    1180    324.83339   -7469.7444   -7433.5088   -1595.8979    28197.798      1.08324 
    1190     323.0656    -7469.547   -7433.5086   -1375.8946    28197.798    1.0843645 
    1200    326.00229   -7469.8755   -7433.5094   -1363.0761    28197.798    1.0866847 
    1210    323.60131   -7469.6075   -7433.5093   -1443.8788    28197.798    1.0914376 
    1220    314.86633   -7468.6315   -7433.5077    -1441.619    28197.798    1.0987426 
    1230    317.32768   -7468.9064    -7433.508   -1559.6432    28197.798    1.1065849 
    1240    326.61768   -7469.9442   -7433.5095    -1737.292    28197.798    1.1124274 
    1250    327.91435   -7470.0882   -7433.5088   -1749.2493    28197.798    1.1148136 
    1260    327.41425   -7470.0321   -7433.5085   -1712.0432    28197.798    1.1139762 
    1270    328.75653   -7470.1825   -7433.5092   -1683.8137    28197.798    1.1115386 
    1280    325.80598   -7469.8529   -7433.5088   -1538.0149    28197.798    1.1099118 
    1290    323.59797   -7469.6061   -7433.5083    -1393.147    28197.798    1.1110394 
    1300    328.71985   -7470.1782    -7433.509   -1431.9253    28197.798    1.1157633 
    1310    332.05384   -7470.5509   -7433.5098   -1601.7046    28197.798    1.1238464 
    1320    326.34719   -7469.9128   -7433.5083    -1756.141    28197.798    1.1334851 
    1330    324.68525   -7469.7281    -7433.509   -1866.9567    28197.798    1.1424768 
    1340    323.62895   -7469.6106   -7433.5093   -1820.3961    28197.798    1.1503474 
    1350    321.18374   -7469.3371   -7433.5086   -1632.9848    28197.798    1.1571992 
    1360    323.09507   -7469.5509   -7433.5091   -1587.1482    28197.798    1.1631636 
    1370    324.29232   -7469.6842   -7433.5089   -1616.6449    28197.798    1.1686982 
    1380     326.2503   -7469.9023   -7433.5086   -1636.9188    28197.798     1.173831 
    1390    332.41763   -7470.5906   -7433.5089   -1665.6686    28197.798     1.178143 
    1400     337.5602   -7471.1651   -7433.5097   -1687.4959    28197.798    1.1818866 
    1410    333.85834   -7470.7513   -7433.5089   -1669.0761    28197.798    1.1862746 
    1420    329.15392   -7470.2262   -7433.5086   -1696.7844    28197.798     1.192114 
    1430    328.52491   -7470.1563   -7433.5089   -1763.0447    28197.798    1.1993094 
    1440     327.3183   -7470.0222   -7433.5093   -1740.2368    28197.798    1.2070267 
    1450    320.56166   -7469.2677   -7433.5086   -1571.8358    28197.798    1.2140574 
    1460    317.21612   -7468.8939    -7433.508   -1450.6782    28197.798    1.2193446 
    1470    324.56132   -7469.7143    -7433.509   -1410.6769    28197.798    1.2226826 
    1480    330.13379   -7470.3368   -7433.5098   -1431.8034    28197.798    1.2245776 
    1490    325.99003   -7469.8731   -7433.5084   -1460.0301    28197.798    1.2251991 
    1500    326.34111   -7469.9125   -7433.5087   -1492.8131    28197.798    1.2250425 
    1510    328.98361   -7470.2082   -7433.5096   -1366.0993    28197.798    1.2258269 
    1520    323.19049   -7469.5616   -7433.5092   -1233.2236    28197.798    1.2287949 
    1530    314.30765   -7468.5695    -7433.508   -1166.0146    28197.798     1.233467 
    1540    316.88621   -7468.8578   -7433.5086   -1296.0227    28197.798    1.2387587 
    1550    324.65879   -7469.7256   -7433.5094   -1479.6195    28197.798    1.2448694 
    1560    327.50012   -7470.0423   -7433.5091   -1643.9366    28197.798    1.2525129 
    1570    327.65604   -7470.0595    -7433.509   -1741.9673    28197.798    1.2614899 
    1580    328.47786    -7470.151   -7433.5088   -1769.2005    28197.798    1.2709819 
    1590    329.28696   -7470.2422   -7433.5097   -1803.0203    28197.798    1.2802744 
    1600     321.9951   -7469.4276   -7433.5085   -1826.5634    28197.798    1.2894024 
    1610    317.74199   -7468.9527   -7433.5082   -1871.7877    28197.798    1.2978342 
    1620    322.49906   -7469.4845   -7433.5092   -1926.4056    28197.798    1.3047741 
    1630    324.53767   -7469.7123   -7433.5097    -1886.055    28197.798    1.3106314 
    1640    321.32055   -7469.3524   -7433.5086   -1889.5966    28197.798    1.3165616 
    1650    324.87363   -7469.7495   -7433.5094   -2048.7483    28197.798    1.3231018 
    1660    327.06048   -7469.9934   -7433.5093   -2321.9126    28197.798    1.3301325 
    1670    327.01807    -7469.988   -7433.5087   -2463.2173    28197.798    1.3371232 
    1680    332.73575   -7470.6262    -7433.509   -2473.9756    28197.798    1.3434501 
    1690    340.27634   -7471.4684   -7433.5101   -2358.4231    28197.798     1.349213 
    1700    337.44669   -7471.1522   -7433.5095   -2252.2725    28197.798    1.3549843 
    1710    330.67556    -7470.396   -7433.5086   -2160.1691    28197.798    1.3604068 
    1720    331.67093   -7470.5077   -7433.5093   -2156.9409    28197.798    1.3647557 
    1730    333.01289   -7470.6579   -7433.5098   -2021.7211    28197.798    1.3682441 
    1740    330.44178   -7470.3703    -7433.509   -1850.1577    28197.798    1.3714091 
    1750     332.4665    -7470.596   -7433.5089   -1832.8568    28197.798    1.3748089 
    1760    338.17048   -7471.2334     -7433.51   -1973.1084    28197.798    1.3794872 
    1770    335.21561    -7470.903   -7433.5092   -2005.2986    28197.798    1.3861103 
    1780    331.46871   -7470.4842   -7433.5083    -2006.432    28197.798    1.3935425 
    1790    336.57308   -7471.0542    -7433.509   -1950.7177    28197.798    1.4003036 
    1800    342.16681   -7471.6789   -7433.5097   -1858.6382    28197.798    1.4064058 
    1810    341.53807   -7471.6084   -7433.5093   -1744.4176    28197.798    1.4119797 
    1820    338.74843   -7471.2969    -7433.509   -1716.7454    28197.798    1.4163984 
    1830    337.43007   -7471.1504   -7433.5096   -1688.5283    28197.798    1.4193696 
    1840    332.09753   -7470.5554   -7433.5094   -1600.2009    28197.798    1.4219384 
    1850    325.17964    -7469.783   -7433.5087    -1439.338    28197.798    1.4258708 
    1860    325.05027   -7469.7687   -7433.5089    -1373.363    28197.798    1.4317493 
    1870    331.46526   -7470.4843   -7433.5088    -1327.857    28197.798    1.4388941 
    1880    342.15073   -7471.6771   -7433.5097   -1249.4856    28197.798    1.4469071 
    1890    346.12273   -7472.1203   -7433.5098   -1070.4903    28197.798    1.4557041 
    1900    342.16962    -7471.678   -7433.5085   -929.47635    28197.798    1.4642996 
    1910     342.4351   -7471.7085   -7433.5094   -1069.1378    28197.798    1.4714358 
    1920    340.30349   -7471.4704    -7433.509   -1312.7881    28197.798    1.4769569 
    1930    335.83125   -7470.9717   -7433.5092   -1652.4617    28197.798    1.4812625 
    1940    329.14467   -7470.2254   -7433.5088   -1839.7793    28197.798     1.484747 
    1950    325.46317   -7469.8145   -7433.5086    -1862.611    28197.798    1.4876872 
    1960    325.80538   -7469.8536   -7433.5095   -1803.4783    28197.798    1.4908352 
    1970    322.63237   -7469.4987   -7433.5085   -1762.1388    28197.798    1.4943863 
    1980    323.28026   -7469.5712   -7433.5088   -1849.0487    28197.798    1.4974264 
    1990    326.60106   -7469.9416   -7433.5087   -1955.1148    28197.798     1.499423 
    2000    331.22759   -7470.4581   -7433.5091   -2018.3182    28197.798     1.500266 
Loop time of 1260.94 on 16 procs for 2000 steps with 864 atoms

Performance: 0.137 ns/day, 175.130 hours/ns, 1.586 timesteps/s
97.8% CPU use with 16 MPI tasks x 1 OpenMP threads

MPI task timing breakdown:
Section |  min time  |  avg time  |  max time  |%varavg| %total
---------------------------------------------------------------
Pair    | 688.7      | 1001.3     | 1252.6     | 593.4 | 79.41
Bond    | 0.00015068 | 0.00049654 | 0.0014985  |   0.0 |  0.00
Neigh   | 0.020347   | 0.024669   | 0.026886   |   1.2 |  0.00
Comm    | 6.8211     | 255.57     | 570.32     |1175.6 | 20.27
Output  | 0.42573    | 2.1437     | 5.2648     | 119.4 |  0.17
Modify  | 0.0076132  | 0.010349   | 0.014565   |   2.1 |  0.00
Other   |            | 1.895      |            |       |  0.15

Nlocal:        54.0000 ave          62 max          42 min
Histogram: 1 0 0 1 2 2 4 3 1 2
Nghost:        408.688 ave         443 max         379 min
Histogram: 2 2 1 1 2 3 1 3 0 1
Neighs:         0.00000 ave           0 max           0 min
Histogram: 16 0 0 0 0 0 0 0 0 0
FullNghs:      1634.62 ave        2021 max        1124 min
Histogram: 1 0 1 1 3 1 5 2 0 2

Total # of neighbors = 26154
Ave neighs/atom = 30.270833
Ave special neighs/atom = 0.0000000
Neighbor list builds = 199
Dangerous builds = 198
unfix   1

velocity    all create 637.5 1312343 dist gaussian
fix     2 all npt temp 637.5 637.5 $(100.0*dt) aniso 0.0 1.01325 $(1000.0*dt)
fix     2 all npt temp 637.5 637.5 0.10000000000000000555 aniso 0.0 1.01325 $(1000.0*dt)
fix     2 all npt temp 637.5 637.5 0.10000000000000000555 aniso 0.0 1.01325 1
run     3000
Per MPI rank memory allocation (min/avg/max) = 8.897 | 8.898 | 8.900 Mbytes
Step Temp PotEng TotEng Press Volume c_msd[4] 
    2000        637.5   -7470.4581    -7399.344   -724.16051    28197.798     1.500266 
    2010    598.39843   -7466.0857   -7399.3335   -637.42137     28196.71    1.4980889 
    2020    531.97841   -7458.5884   -7399.2454   -522.03819    28193.656    1.5005869 
    2030    496.65658   -7454.3884   -7398.9856   -497.09632    28188.933    1.5034834 
    2040    489.24116   -7453.0699   -7398.4943   -324.76998    28182.716    1.5060326 
    2050    490.79922   -7452.5266   -7397.7772   -164.84126    28175.484    1.5095754 
    2060    479.24831   -7450.3907   -7396.9298    4.9201801    28167.743    1.5143696 
    2070    475.73875    -7449.162   -7396.0926     252.3742    28160.037    1.5188826 
    2080    489.22118   -7449.8972   -7395.3238    368.22806    28153.065    1.5233355 
    2090    502.00706   -7450.6156    -7394.616     296.9419    28147.191    1.5293227 
    2100    509.88252   -7450.8068   -7393.9287    74.662113    28142.192    1.5371497 
    2110    515.19497   -7450.6887    -7393.218     -51.5739    28137.474    1.5469436 
    2120    516.06653   -7450.0259   -7392.4579   -107.81566    28132.622    1.5586518 
    2130    510.13247   -7448.5497   -7391.6436   -77.942512    28127.472    1.5711329 
    2140    515.04964    -7448.225   -7390.7704   -105.77985    28122.062    1.5830234 
    2150    521.35257   -7447.9981   -7389.8404   -169.04272    28116.314     1.594792 
    2160    519.93492    -7446.884   -7388.8845   -278.12922    28110.033    1.6078624 
    2170    509.96647   -7444.8113   -7387.9238   -340.63075    28102.911    1.6222357 
    2180    508.58427   -7443.6871   -7386.9538   -425.14579    28094.728    1.6356747 
    2190    515.90761   -7443.5067   -7385.9564   -492.51011    28085.239    1.6474833 
    2200    521.34483    -7443.098   -7384.9412   -482.78898    28074.257    1.6589087 
    2210    529.12351   -7442.9413   -7383.9168   -513.61634    28061.805    1.6700753 
    2220    538.58839   -7442.9626   -7382.8823   -618.61344    28047.782    1.6797753 
    2230    540.09737   -7442.0893   -7381.8406   -558.53097    28031.962    1.6876962 
    2240    553.39699   -7442.5337   -7380.8015   -580.85939    28014.447    1.6958004 
    2250    564.49503   -7442.7329   -7379.7626   -595.44836    27995.225    1.7083622 
    2260    557.83347   -7440.9716   -7378.7444   -512.06624    27974.295    1.7279497 
    2270    561.44297   -7440.3694   -7377.7396   -383.62298    27951.931     1.752573 
    2280    573.99015   -7440.7543   -7376.7249   -236.58131    27928.547    1.7796048 
    2290    586.98399   -7441.1938   -7375.7149   -168.02068    27904.585    1.8066624 
    2300    591.72655   -7440.7341   -7374.7261   -292.64241    27880.242    1.8324897 
    2310    588.61508   -7439.4368   -7373.7759   -451.97397    27855.203    1.8572603 
    2320    581.77252   -7437.7488   -7372.8512   -443.57607    27829.054    1.8818415 
    2330    572.36459   -7435.7812   -7371.9331   -63.080965    27801.943    1.9069319 
    2340    574.69472   -7435.1028   -7370.9947    263.43508    27774.931    1.9333929 
    2350    583.30654   -7435.0868   -7370.0181     480.6003    27749.022    1.9622781 
    2360    602.14101   -7436.1866   -7369.0169    638.42089    27724.883    1.9927984 
    2370     608.4594   -7435.8944   -7368.0198    997.29521    27703.089    2.0235828 
    2380    599.87564   -7433.9803   -7367.0633     1010.849     27684.51    2.0538691 
    2390    601.28658   -7433.2105   -7366.1361    608.11306    27669.135    2.0834088 
    2400    617.63062    -7434.114   -7365.2163    212.65415    27655.842    2.1122726 
    2410    629.98462   -7434.5897   -7364.3139    53.691727    27643.459     2.142721 
    2420    632.69871    -7434.036   -7363.4575     228.8573    27631.546    2.1752881 
    2430    633.26974   -7433.2966   -7362.6544    318.06932      27620.5    2.2081679 
    2440    623.55822   -7431.4555   -7361.8966    363.87276    27610.601    2.2398631 
    2450    619.27714   -7430.2436   -7361.1623    334.88997    27601.954    2.2699268 
    2460    623.05713   -7429.9337   -7360.4307    185.34349    27594.442    2.2993898 
    2470     617.0377   -7428.5378   -7359.7063    79.504937    27587.645    2.3294154 
    2480    624.90138   -7428.6906   -7358.9819    -160.7771    27581.179    2.3598623 
    2490    641.70342   -7429.8359   -7358.2529   -572.03683    27574.311    2.3907344 
    2500    645.19334   -7429.5236   -7357.5513   -779.71994     27565.95     2.421402 
    2510    640.71817    -7428.371   -7356.8979   -787.85971    27555.494    2.4509818 
    2520    641.27051   -7427.8193   -7356.2846   -659.87833    27542.954     2.477774 
    2530    638.19378   -7426.8898   -7355.6983   -507.24322     27528.71    2.5004811 
    2540    636.87472     -7426.18   -7355.1356   -443.84509    27513.215    2.5199186 
    2550    629.76612   -7424.8378   -7354.5864   -231.03002    27496.758    2.5383595 
    2560    637.79919    -7425.192   -7354.0445   0.64925425    27479.937    2.5564233 
    2570    654.94198   -7426.5723   -7353.5125    73.031574    27463.398    2.5731684 
    2580    658.28249   -7426.4541   -7353.0217    327.44824    27447.461     2.587662 
    2590    657.91932   -7425.9817   -7352.5898    604.50022    27432.788    2.5989573 
    2600     647.7816    -7424.469    -7352.208    827.03936    27420.177      2.60741 
    2610    636.52935   -7422.8669   -7351.8611    909.37879    27410.195    2.6136266 
    2620    643.41306   -7423.2948   -7351.5211    950.81103    27403.071    2.6171998 
    2630    672.28531   -7426.1884   -7351.1939    880.78441    27398.844     2.617094 
    2640    689.91092   -7427.8955   -7350.9349    825.01458    27397.285    2.6135141 
    2650    684.77001   -7427.1801    -7350.793     823.1279     27398.19    2.6073374 
    2660    671.40489   -7425.6611   -7350.7649     808.9905    27401.505    2.5986013 
    2670    663.19552   -7424.8007   -7350.8202    797.74785    27407.156    2.5883545 
    2680     661.8885   -7424.7728   -7350.9381    778.76475    27415.063    2.5777649 
    2690    662.97708    -7425.072   -7351.1159    682.21845    27425.109    2.5677801 
    2700    653.97749   -7424.3059   -7351.3538    659.08522    27437.031    2.5606308 
    2710    640.01921   -7423.0175   -7351.6223      580.816    27450.697    2.5554517 
    2720    645.94499   -7423.9618   -7351.9057    457.79901    27465.858    2.5484934 
    2730    659.99871   -7425.8446   -7352.2208    336.74738     27482.15    2.5398109 
    2740    666.59887    -7426.952   -7352.5919    265.10907    27499.222    2.5299041 
    2750    666.60335   -7427.3882   -7353.0276    253.74322    27516.864    2.5186712 
    2760    668.05357   -7428.0516   -7353.5293   -22.768294    27534.904    2.5061414 
    2770    665.14708   -7428.2936   -7354.0954   -250.26453    27552.626    2.4942875 
    2780    640.10403   -7426.0919   -7354.6874   -311.64947    27569.397    2.4859147 
    2790    624.16059   -7424.8742   -7355.2482   -288.93795        27585    2.4810391 
    2800    633.47642   -7426.4344   -7355.7692   -389.36185     27599.46    2.4770894 
    2810    640.77954    -7427.749   -7356.2691   -528.04783    27612.518    2.4730726 
    2820     635.5635   -7427.6493   -7356.7512   -334.50617    27623.898    2.4685697 
    2830    642.37021   -7428.8783    -7357.221   -141.21197    27634.086    2.4619669 
    2840    644.06682   -7429.5439   -7357.6972   -105.67403    27643.627    2.4536426 
    2850    620.55546   -7427.3765   -7358.1527   -35.189055    27652.713    2.4460151 
    2860    617.09222   -7427.3942   -7358.5566   -210.34722    27661.458     2.440976 
    2870    613.93856   -7427.3888    -7358.903    -256.3748    27669.457     2.440003 
    2880    600.00584   -7426.1176   -7359.1861   -128.25154    27676.591    2.4415751 
    2890    590.27835   -7425.2284   -7359.3819   -108.80165    27683.175    2.4429478 
    2900    589.31783   -7425.2105   -7359.4712   -308.64532    27689.254    2.4434904 
    2910    600.36563   -7426.4365   -7359.4648   -505.67261    27694.322    2.4455275 
    2920    601.77303   -7426.5064   -7359.3777   -484.87585    27697.851    2.4517075 
    2930    602.55438   -7426.4318    -7359.216   -286.70872     27699.94    2.4601329 
    2940    616.11116   -7427.7095   -7358.9814   -330.14735    27701.063    2.4680168 
    2950    626.73918    -7428.607   -7358.6933   -494.71032    27701.152       2.4766 
    2960    627.30873   -7428.3572     -7358.38     -751.794    27699.737    2.4879482 
    2970    624.77092    -7427.747   -7358.0528   -944.78154    27696.113    2.5005685 
    2980    621.27283   -7427.0075   -7357.7036   -1000.9464    27689.762    2.5103754 
    2990    638.79507   -7428.5952   -7357.3367   -1021.6508    27680.522    2.5161066 
    3000     629.7016   -7427.2079   -7356.9637   -745.46274    27668.462    2.5221247 
    3010    614.45388   -7425.1315   -7356.5882    -389.0774    27654.394     2.529885 
    3020    624.44275    -7425.839   -7356.1815   -358.27818     27639.29    2.5382338 
    3030    626.77461   -7425.6666    -7355.749   -345.97512     27623.35    2.5472152 
    3040    616.02209   -7424.0244   -7355.3062   -183.52271    27606.662    2.5557245 
    3050    622.28671   -7424.2562   -7354.8391   -5.5684884    27589.678    2.5622277 
    3060     631.4493   -7424.7786   -7354.3395    248.53521    27572.966    2.5671808 
    3070    637.54467   -7424.9567   -7353.8376    374.55038    27557.226    2.5727744 
    3080    648.50124   -7425.6944   -7353.3531    251.36132    27542.787     2.584184 
    3090    652.82875   -7425.7262   -7352.9021   -72.961448    27529.264    2.6032886 
    3100    651.64069   -7425.1874   -7352.4959   -442.32562    27515.718    2.6257884 
    3110    659.13839   -7425.6655   -7352.1376   -631.27948    27501.122    2.6485748 
    3120    665.22427   -7426.0471   -7351.8404   -587.23132    27484.966    2.6716836 
    3130    661.15861   -7425.3673   -7351.6141   -384.67403    27467.391     2.694795 
    3140    661.93651   -7425.2856   -7351.4456   -200.29321    27448.975     2.717249 
    3150    669.82851    -7426.053   -7351.3326   -83.772315    27430.244    2.7404183 
    3160    672.73083    -7426.329   -7351.2848    267.59378    27411.651    2.7664578 
    3170    661.41167   -7425.0825    -7351.301    703.31146    27394.172    2.7964491 
    3180    657.00763   -7424.6548   -7351.3647    1095.6086    27379.071     2.830898 
    3190    668.10811   -7426.0106   -7351.4821    1186.2684    27367.367    2.8698416 
    3200    665.38529   -7425.9005   -7351.6757    1147.5736    27359.316    2.9102521 
    3210     664.1843     -7426.04   -7351.9492    1068.4557    27354.764    2.9454092 
    3220    664.48317   -7426.4199   -7352.2958    918.88263    27353.405    2.9740343 
    3230    644.45298   -7424.5777    -7352.688    816.77961    27354.774    3.0000464 
    3240    634.36275   -7423.8481    -7353.084    640.97904    27358.481    3.0259193 
    3250    637.31666   -7424.5559   -7353.4622    262.74831    27363.939    3.0531812 
    3260    624.88679   -7423.5226   -7353.8155    128.43987    27370.154    3.0830177 
    3270    612.54803    -7422.453   -7354.1223    172.57083    27376.701    3.1127874 
    3280    614.40907    -7422.916   -7354.3777    49.931871    27383.593    3.1392471 
    3290    614.56837    -7423.142    -7354.586   -5.9573341    27390.545     3.162379 
    3300    620.79698    -7424.002   -7354.7512   -93.635453    27397.346    3.1836081 
    3310    635.26353   -7425.7521   -7354.8875   -75.731945    27403.811    3.2041738 
    3320    643.11771   -7426.7594   -7355.0186   -112.18939    27409.919    3.2247156 
    3330    645.37541   -7427.1521   -7355.1595   -13.004783    27415.646    3.2426663 
    3340    655.01419   -7428.3962   -7355.3283   -71.169866     27421.19    3.2546438 
    3350    659.27534   -7429.0828   -7355.5396   -278.45648    27426.392    3.2624234 
    3360    651.65949   -7428.4924   -7355.7988   -316.67225     27430.74    3.2708589 
    3370    637.49879   -7427.2017   -7356.0877   -67.624942    27434.168    3.2831052 
    3380    629.42161   -7426.5893   -7356.3764    109.81965    27437.333    3.2980437 
    3390    638.60907   -7427.8966   -7356.6588   -44.946194    27440.696     3.313258 
    3400    644.14588   -7428.8049   -7356.9495   -191.20354    27443.903    3.3275871 
    3410    636.64443   -7428.2712   -7357.2525   -159.40276    27446.566    3.3401174 
    3420    625.37035   -7427.3094   -7357.5484   -96.007565    27448.753    3.3498164 
    3430    617.85301   -7426.7377   -7357.8153   -241.03104    27450.585     3.357777 
    3440    611.81428   -7426.2844   -7358.0356   -534.74814    27451.645    3.3670463 
    3450     608.3777   -7426.0641   -7358.1986   -596.58849    27451.188    3.3783895 
    3460    609.31558   -7426.2712   -7358.3011   -472.42129    27449.026    3.3904913 
    3470    615.74131    -7427.036   -7358.3491   -272.74199    27445.529    3.4021467 
    3480    617.40895   -7427.2243   -7358.3514   -95.973348    27441.246     3.413288 
    3490    608.67301   -7426.2016   -7358.3032    341.66375    27436.815    3.4241879 
    3500    614.39461   -7426.7345   -7358.1978    688.85066    27433.404    3.4344311 
    3510    625.47753    -7427.808    -7358.035    801.01253    27432.004     3.445172 
    3520    636.77704   -7428.8677   -7357.8342    720.16274     27432.95    3.4565447 
    3530    651.39574   -7430.2874   -7357.6232    446.77758    27435.972    3.4674198 
    3540     649.5899   -7429.8902   -7357.4275    331.10147    27440.354    3.4762189 
    3550    641.10586    -7428.772   -7357.2557    204.11907     27445.68    3.4816292 
    3560    637.45775   -7428.1985   -7357.0891    26.495661    27451.564    3.4833808 
    3570    637.82953   -7428.0678    -7356.917   -22.272801    27457.529    3.4827327 
    3580    642.36102   -7428.3932   -7356.7368    139.63562    27463.483     3.482496 
    3590    650.56087     -7429.13    -7356.559    202.22079    27469.802    3.4840822 
    3600    650.41811   -7428.9504   -7356.3952    169.68011    27476.676    3.4879113 
    3610    644.33532   -7428.1262   -7356.2496    143.62949    27484.026    3.4952143 
    3620    648.78344   -7428.4908    -7356.118    164.41799    27491.776    3.5068394 
    3630    649.81433   -7428.4891   -7356.0013    296.35167    27500.019    3.5212831 
    3640    636.20564   -7426.8724   -7355.9027    398.42471    27509.108    3.5344117 
    3650    628.67882   -7425.9286   -7355.7985    238.94352    27519.289    3.5421958 
    3660    632.55808   -7426.2267   -7355.6639   -68.163034     27530.13    3.5440448 
    3670    645.95025   -7427.5635   -7355.5068   -434.74993    27540.728    3.5421414 
    3680    646.20537   -7427.4286   -7355.3434   -524.84861    27550.112    3.5411319 
    3690    645.51785   -7427.1936   -7355.1851   -604.16228     27557.91    3.5448323 
    3700    649.13213   -7427.4431   -7355.0315   -660.38796    27563.898    3.5535699 
    3710    651.97116   -7427.6163    -7354.888   -577.17408    27567.955    3.5657251 
    3720    653.14058   -7427.6229   -7354.7641   -426.41319    27570.299    3.5799405 
    3730    647.63213   -7426.9024   -7354.6581    -247.5568    27571.376    3.5940014 
    3740     657.4727   -7427.9108   -7354.5687   -337.18615    27571.642    3.6040274 
    3750    673.34197   -7429.6284   -7354.5161   -538.97023     27570.88    3.6108743 
    3760    661.70703   -7428.3495   -7354.5351   -607.11195    27568.537    3.6194905 
    3770     636.2216    -7425.584   -7354.6126   -447.54907    27564.454    3.6311241 
    3780    633.12074   -7425.3325   -7354.7069   -344.98897    27559.033    3.6434721 
    3790    639.81821   -7426.1834   -7354.8107   -477.90192    27552.518    3.6558982 
    3800    632.69199   -7425.5063   -7354.9285   -727.35231    27544.557     3.666949 
    3810    631.36678   -7425.4874   -7355.0575   -1082.2659    27534.412    3.6729203 
    3820    632.86813   -7425.7891   -7355.1917    -1364.152    27521.047     3.674538 
    3830    627.13029   -7425.2867   -7355.3294   -1220.2195    27503.721    3.6762361 
    3840    621.40618   -7424.7741   -7355.4553   -778.44795    27482.849    3.6822551 
    3850    616.91529   -7424.3708    -7355.553   -375.69875    27459.645    3.6930986 
    3860    619.41693   -7424.7086   -7355.6117   -106.38459    27435.283    3.7040673 
    3870    633.54017   -7426.3115   -7355.6392   -105.50697    27410.524    3.7126124 
    3880    645.48105   -7427.6636   -7355.6593   -163.05794     27385.44    3.7212843 
    3890    652.23419   -7428.4552   -7355.6975   -92.494785     27359.92    3.7340153 
    3900    654.15943   -7428.7437   -7355.7712   -68.936493    27334.108    3.7517016 
    3910    660.70505   -7429.5997    -7355.897   -101.10832    27308.075     3.770131 
    3920    665.42325   -7430.3211   -7356.0921    120.15198    27281.837    3.7847929 
    3930    661.80276    -7430.191   -7356.3659    481.01902     27255.99    3.7948311 
    3940    653.76094   -7429.6408   -7356.7128    933.58808    27231.579    3.8026598 
    3950    641.02463   -7428.6225   -7357.1152    1248.1338    27209.853    3.8122589 
    3960    612.28262    -7425.827    -7357.526    1315.6029    27191.709    3.8259756 
    3970    604.35798   -7425.3084   -7357.8914    1211.8948    27177.353     3.842022 
    3980    621.31001    -7427.518   -7358.2099    1191.6356     27166.54    3.8563528 
    3990    622.39698   -7427.9272   -7358.4979    1388.4013    27159.231    3.8647888 
    4000    614.19746   -7427.2697    -7358.755    1609.1898    27155.951    3.8645755 
    4010    617.08158   -7427.8084    -7358.972    1617.3875    27157.302    3.8581828 
    4020    626.55433   -7429.0504   -7359.1573    1524.4144    27163.351    3.8524175 
    4030     627.3011   -7429.2975   -7359.3212    1491.3965    27173.905    3.8510774 
    4040    630.58003   -7429.8141    -7359.472    1247.3162    27188.789      3.85145 
    4050    632.36025   -7430.1545   -7359.6138     930.1741    27207.363    3.8498407 
    4060    623.68522   -7429.3144   -7359.7414    608.10033    27228.743     3.844684 
    4070    619.51912   -7428.9467   -7359.8384    314.43034    27252.029    3.8345639 
    4080    632.11412   -7430.4165   -7359.9032   -102.15951    27276.303    3.8205579 
    4090    630.31771   -7430.2613   -7359.9484   -372.31148    27300.412    3.8091275 
    4100    617.40816   -7428.8463   -7359.9735   -378.53296    27323.603    3.8045613 
    4110    619.71437   -7429.0967   -7359.9667   -357.49737    27345.777    3.8046459 
    4120     619.2149   -7428.9905   -7359.9161    -253.1091    27367.023    3.8050646 
    4130    625.96277   -7429.6477   -7359.8206   -256.76023     27387.59    3.8016938 
    4140    643.16798   -7431.4326   -7359.6862   -326.31585    27407.461    3.7938725 
    4150    657.38593   -7432.8726   -7359.5402   -122.90613    27426.537    3.7837596 
    4160    666.66694   -7433.7899   -7359.4222    70.369113    27445.311    3.7726591 
    4170    657.25776   -7432.6706   -7359.3525    156.18685    27464.358    3.7606041 
    4180     645.6867   -7431.3479   -7359.3206   -88.585671    27483.847    3.7458215 
    4190    644.30178   -7431.1747   -7359.3019   -328.15972    27503.153     3.728543 
    4200    652.56727   -7432.0958    -7359.301    -311.1704    27521.625    3.7139263 
    4210     652.0751   -7432.0763   -7359.3363    25.441676    27539.345    3.7062154 
    4220    643.08787   -7431.1503   -7359.4128    217.51109    27557.175    3.7035939 
    4230    642.86766   -7431.2313   -7359.5185    107.32775    27575.662    3.7026405 
    4240    644.24724   -7431.5132   -7359.6465   -233.25295    27594.484    3.7027183 
    4250    633.47186   -7430.4632   -7359.7985   -460.07097    27612.735    3.7043937 
    4260    621.75279   -7429.3147   -7359.9572   -556.81496    27629.727    3.7064032 
    4270    617.70141   -7429.0029   -7360.0974   -729.82635      27645.1    3.7061165 
    4280    622.50679   -7429.6535   -7360.2119   -960.05863    27658.323    3.7033344 
    4290    628.54899   -7430.4199   -7360.3043    -1054.877    27668.734    3.7012248 
    4300    636.07352   -7431.3485   -7360.3936   -1015.2404    27676.032    3.7030132 
    4310    631.45312   -7430.9267   -7360.4872   -823.12453    27680.357    3.7093537 
    4320    625.24426   -7430.3264   -7360.5795   -657.54189    27682.218    3.7191818 
    4330    617.82703   -7429.5699   -7360.6504   -636.04159    27682.075    3.7315772 
    4340    620.17497   -7429.8705    -7360.689   -661.84549    27680.005    3.7442131 
    4350    622.54422   -7430.1376   -7360.6919   -494.98025    27675.994    3.7556913 
    4360    621.27654   -7429.9648   -7360.6605    -315.4941    27670.481    3.7653962 
    4370    624.99687   -7430.3116   -7360.5923   -218.58706    27663.971    3.7739471 
    4380    624.83147   -7430.1896   -7360.4887   -233.30992    27656.764     3.783724 
    4390    612.53619   -7428.6747   -7360.3454   -482.60708    27648.758    3.7955646 
    4400    606.42175   -7427.7912   -7360.1439   -494.07853     27639.33    3.8086136 
    4410    608.58532   -7427.7474   -7359.8588   -156.58016    27628.465    3.8229561 
    4420    621.25441   -7428.7922   -7359.4904   -30.644787    27617.017    3.8380577 
    4430    625.41956   -7428.8242   -7359.0577   -172.60383    27605.345    3.8535986 
    4440    617.30008   -7427.4432   -7358.5824   -143.50814    27593.143    3.8680882 
    4450    624.44356   -7427.7239   -7358.0663    28.826098    27580.478    3.8797876 
    4460    640.46112    -7428.966   -7357.5216    216.09357    27567.819    3.8908993 
    4470    637.30605   -7428.0862   -7356.9938    532.92292    27555.779    3.9050979 
    4480    626.43637   -7426.3821   -7356.5022    868.19135    27545.282    3.9206098 
    4490    642.89788   -7427.7544   -7356.0382    950.68791     27537.25    3.9329859 
    4500    660.81227   -7429.3302   -7355.6156    848.68863    27531.971     3.944197 
    4510    662.63858    -7429.196   -7355.2776    782.58293    27529.225    3.9573808 
    4520    658.06921   -7428.4365   -7355.0279    675.01937    27528.803    3.9722205 
    4530    664.58109   -7428.9853   -7354.8503    510.70523    27530.389     3.986141 
    4540    666.06764   -7429.0449    -7354.744    401.25168    27533.531    3.9987656 
    4550    656.60643   -7427.9476   -7354.7022    268.73686    27537.917    4.0107108 
    4560    663.33463   -7428.7097   -7354.7137   -143.71006     27543.07     4.021904 
    4570    658.80049   -7428.2653   -7354.7751   -263.27423    27547.941    4.0344479 
    4580    647.68054   -7427.1292   -7354.8795   -210.21672    27552.116    4.0486059 
    4590    648.12555   -7427.3108   -7355.0115   -189.60486    27555.698    4.0637246 
    4600    641.84301   -7426.7596   -7355.1611   -133.22817     27558.76    4.0784729 
    4610     639.4023   -7426.6474   -7355.3211   -143.22965    27561.438      4.08829 
    4620    647.72713   -7427.7449   -7355.4899   -213.28284    27563.692    4.0907853 
    4630    656.06203   -7428.8688    -7355.684   -399.41224     27565.29    4.0891817 
    4640    657.50057   -7429.2646   -7355.9194   -563.17569    27565.724    4.0887515 
    4650    656.50655   -7429.4349   -7356.2006   -577.66303    27564.518    4.0931336 
    4660    655.03338   -7429.5936   -7356.5237   -534.33156    27561.607    4.1043211 
    4670    648.94129   -7429.2769   -7356.8866   -537.63676     27557.06    4.1209201 
    4680     639.1145   -7428.5604   -7357.2662   -528.97774    27550.881    4.1379598 
    4690    642.57761   -7429.3348   -7357.6543   -679.06988    27543.016    4.1529218 
    4700    641.73938   -7429.6347   -7358.0477   -641.68108    27533.104     4.166435 
    4710    630.46909    -7428.762   -7358.4323   -386.41051    27521.257    4.1773461 
    4720    621.75972   -7428.1394   -7358.7811   -234.20244    27508.132    4.1839379 
    4730    622.74042   -7428.5501   -7359.0825   -150.03214    27494.185    4.1874472 
    4740    622.69891   -7428.7985   -7359.3355   -91.486983    27479.668    4.1913849 
    4750    634.68383   -7430.3534   -7359.5535   -95.690111    27464.745    4.1969555 
    4760    646.96967   -7431.9271   -7359.7566   -12.165253    27449.446    4.2047866 
    4770    649.21744   -7432.3851   -7359.9639    221.27224    27434.016    4.2154162 
    4780    640.03263    -7431.569   -7360.1724    362.74496    27419.097    4.2276004 
    4790    629.65121   -7430.6008   -7360.3622    319.60132    27405.107    4.2394622 
    4800    621.52625   -7429.8417   -7360.5095    281.98626    27391.983    4.2504386 
    4810    620.40203   -7429.8128    -7360.606    129.93462    27379.575    4.2619422 
    4820    617.94033    -7429.585   -7360.6528    36.773699    27367.507    4.2756738 
    4830    619.96459   -7429.8196   -7360.6617   -116.75837     27355.45    4.2916704 
    4840    621.86577   -7430.0026   -7360.6325   -33.140543    27343.054    4.3088229 
    4850    627.67792   -7430.5926   -7360.5742    153.52336    27330.516    4.3240473 
    4860    627.88493   -7430.5365    -7360.495    389.87458     27318.41    4.3348561 
    4870       635.96   -7431.3535   -7360.4112    451.22135    27307.355    4.3412384 
    4880    642.81984   -7432.0449   -7360.3373    432.79532    27297.567    4.3458063 
    4890    634.92798    -7431.107   -7360.2798    621.59116    27289.073    4.3523202 
    4900    625.91039   -7430.0426   -7360.2213    849.58306    27282.393     4.361437 
    4910    620.66974   -7429.3803   -7360.1437    876.35477    27278.146    4.3698976 
    4920    627.71455   -7430.0698   -7360.0473    561.71068    27276.373    4.3740473 
    4930    638.84626   -7431.2098   -7359.9455    322.29208    27276.273    4.3753832 
    4940    639.72664   -7431.2169   -7359.8544    531.78751     27277.24     4.376373 
    4950    638.08315   -7430.9574   -7359.7783    742.45268    27279.763    4.3779746 
    4960    635.46925   -7430.6021   -7359.7145    821.47925    27284.455    4.3829935 
    4970    627.98726   -7429.7045   -7359.6516    882.29867    27291.579    4.3936864 
    4980    625.17781   -7429.3138   -7359.5743    727.24613    27301.229     4.407936 
    4990    620.84782   -7428.7258   -7359.4693    637.71299    27313.068    4.4238973 
    5000    627.71351   -7429.3629   -7359.3405    462.52564    27326.768    4.4399979 
Loop time of 1947.65 on 16 procs for 3000 steps with 864 atoms

Performance: 0.133 ns/day, 180.338 hours/ns, 1.540 timesteps/s
97.7% CPU use with 16 MPI tasks x 1 OpenMP threads

MPI task timing breakdown:
Section |  min time  |  avg time  |  max time  |%varavg| %total
---------------------------------------------------------------
Pair    | 1243.6     | 1573.1     | 1926.6     | 644.9 | 80.77
Bond    | 0.00020027 | 0.00064115 | 0.001303   |   0.0 |  0.00
Neigh   | 0.032481   | 0.03664    | 0.040126   |   1.1 |  0.00
Comm    | 13.794     | 342.09     | 656.06     |1384.1 | 17.56
Output  | 0.45578    | 0.46062    | 0.5321     |   2.7 |  0.02
Modify  | 3.7759     | 31.954     | 57.657     | 371.8 |  1.64
Other   |            | 0.0138     |            |       |  0.00

Nlocal:        54.0000 ave          60 max          42 min
Histogram: 1 0 0 1 0 2 6 1 1 4
Nghost:        415.562 ave         437 max         381 min
Histogram: 1 0 0 1 3 3 2 1 3 2
Neighs:         0.00000 ave           0 max           0 min
Histogram: 16 0 0 0 0 0 0 0 0 0
FullNghs:      1681.38 ave        1990 max        1206 min
Histogram: 1 0 0 2 1 4 4 0 2 2

Total # of neighbors = 26902
Ave neighs/atom = 31.136574
Ave special neighs/atom = 0.0000000
Neighbor list builds = 300
Dangerous builds = 300
unfix   2

fix     3 all npt temp 637.5 637.5 $(100.0*dt) aniso 1.01325 1.01325 $(1000.0*dt)
fix     3 all npt temp 637.5 637.5 0.10000000000000000555 aniso 1.01325 1.01325 $(1000.0*dt)
fix     3 all npt temp 637.5 637.5 0.10000000000000000555 aniso 1.01325 1.01325 1
run     20000
Per MPI rank memory allocation (min/avg/max) = 8.897 | 8.898 | 8.900 Mbytes
Step Temp PotEng TotEng Press Volume c_msd[4] 
    5000    627.71351   -7429.3629   -7359.3405    462.52564    27326.768    4.4399979 
    5010    629.48926   -7429.5528   -7359.3324    352.70832    27327.408    4.4623795 
    5020    625.64204   -7429.0993    -7359.308    125.00466    27329.068    4.4831607 
    5030    620.50486    -7428.475   -7359.2567    -105.9764    27331.117    4.5001647 
    5040    624.73107   -7428.8594   -7359.1697   -345.96008    27332.853    4.5114653 
    5050    631.82817   -7429.5327   -7359.0514   -452.61688    27333.615    4.5178939 
    5060    637.23384   -7429.9993   -7358.9149   -405.53171    27333.081    4.5220236 
    5070    643.82236   -7430.5876   -7358.7683   -251.34805    27331.385    4.5271088 
    5080    650.68073   -7431.2083   -7358.6239   -159.60628    27328.942    4.5347727 
    5090    656.56053   -7431.7342   -7358.4939   -282.19319    27325.962    4.5463681 
    5100    653.71269   -7431.3127     -7358.39   -340.13513    27322.167    4.5633771 
    5110    639.07105    -7429.596   -7358.3066   -155.39729    27317.438    4.5856511 
    5120    632.12694   -7428.7291   -7358.2143    67.217786    27312.269    4.6103292 
    5130    646.82834   -7430.2588   -7358.1041   -23.846359    27307.207     4.636388 
    5140    643.05915    -7429.723   -7357.9887   -64.614632    27302.084    4.6647876 
    5150    636.57047   -7428.8795   -7357.8691    133.30019    27296.842    4.6929191 
    5160     654.8408   -7430.7874   -7357.7389    89.893295    27291.887    4.7173726 
    5170    651.64122   -7430.2938   -7357.6022    308.21626    27287.266    4.7384773 
    5180    650.52059   -7430.0398   -7357.4732    532.89058    27283.532    4.7554983 
    5190    654.74853   -7430.3875   -7357.3493    594.63976    27281.317    4.7683628 
    5200    647.83027   -7429.5035   -7357.2371    588.97155    27280.848    4.7790023 
    5210    646.75333   -7429.2838   -7357.1375    324.86225    27282.052    4.7902235 
    5220    644.01445   -7428.8862   -7357.0454    102.40678    27284.248    4.8037378 
    5230    646.09012   -7429.0324   -7356.9601   0.79161657    27286.786    4.8190561 
    5240    653.97961   -7429.8383   -7356.8859    -124.5152    27289.339    4.8361418 
    5250    644.74245   -7428.7527   -7356.8307   -404.12811    27291.498    4.8554563 
    5260    642.12472   -7428.4235   -7356.7936   -660.05865     27292.49    4.8756517 
    5270    647.81009    -7429.036   -7356.7718   -649.06012    27291.617    4.8964496 
    5280    642.51212   -7428.4392    -7356.766   -363.52981    27288.911    4.9185421 
    5290    645.62939   -7428.8009     -7356.78    20.700728    27285.142    4.9430707 
    5300    643.45508   -7428.5872   -7356.8088    500.62661    27281.466    4.9722248 
    5310     649.3859   -7429.3016   -7356.8616    512.50787     27279.11    5.0052799 
    5320    641.58127   -7428.5107   -7356.9413    475.26255    27278.256    5.0393345 
    5330    626.24935   -7426.8909   -7357.0318    478.65663    27278.809    5.0702288 
    5340    635.33531   -7427.9869   -7357.1143    379.04847    27280.748    5.0951743 
    5350    648.69436   -7429.5603   -7357.1974    140.02567    27283.796    5.1159666 
    5360    647.77487   -7429.5674   -7357.3072   -211.04159     27287.26    5.1364335 
    5370    637.54669   -7428.5681   -7357.4488   -330.14054    27290.185    5.1578251 
    5380    624.28162   -7427.2346   -7357.5951   -303.30104    27292.197    5.1764216 
    5390    624.43529   -7427.3805   -7357.7238    -241.1787    27293.357    5.1861481 
    5400    631.44348   -7428.2722   -7357.8337   -181.33679    27293.819    5.1833015 
    5410    632.08604   -7428.4464   -7357.9363   -182.48416    27293.736    5.1725109 
    5420    632.65812   -7428.6098   -7358.0358   -250.06853    27293.086    5.1638114 
    5430    637.39391   -7429.2374   -7358.1352   -162.15869    27291.737    5.1624207 
    5440    644.35645   -7430.1232   -7358.2443   -100.27809    27289.894    5.1671013 
    5450     649.4481   -7430.8273   -7358.3803   -52.558746     27287.75    5.1765491 
    5460     646.7146   -7430.6954   -7358.5534    58.679418    27285.465    5.1907828 
    5470    639.53536   -7430.0997   -7358.7586    44.926793     27283.31    5.2072366 
    5480    629.65634   -7429.2175   -7358.9784   -34.470272    27281.261    5.2201129 
    5490    620.57671   -7428.4177   -7359.1914    -22.60989    27279.109    5.2233568 
    5500    619.26256   -7428.4573   -7359.3777    43.223924    27276.913    5.2163157 
    5510    635.76275   -7430.4675   -7359.5472   -113.45914    27274.784    5.2037317 
    5520    636.25821   -7430.6958   -7359.7203   -220.86679    27272.333    5.1911668 
    5530    630.14866   -7430.1972   -7359.9032   -320.68496    27269.216    5.1815265 
    5540    635.81103   -7431.0203   -7360.0946   -427.49274    27265.139    5.1779179 
    5550    641.01779   -7431.8072   -7360.3007    -224.3792    27259.866    5.1832486 
    5560    638.58763   -7431.7638   -7360.5284    216.75287    27253.945    5.1971065 
    5570    629.11287   -7430.9424   -7360.7639     727.4095     27248.64    5.2169407 
    5580    631.62527   -7431.4532   -7360.9944     891.2566    27245.339     5.239357 
    5590    639.24719   -7432.5449   -7361.2359     921.1513    27244.608     5.259956 
    5600    630.92395   -7431.8777   -7361.4971    1049.1661     27246.61     5.274664 
    5610    625.36727   -7431.5259   -7361.7653    1068.2572    27251.673    5.2829201 
    5620    620.84225   -7431.2775   -7362.0216    1060.0799    27259.897    5.2898791 
    5630    615.65645    -7430.927   -7362.2496    1067.4818    27271.321    5.2999948 
    5640    620.73909   -7431.6968   -7362.4524    781.70513    27285.901    5.3120072 
    5650    621.25772   -7431.9383   -7362.6361     382.2939    27302.862    5.3232997 
    5660    620.41085   -7432.0072   -7362.7994    5.5464128    27321.084    5.3324579 
    5670    623.21863   -7432.4609   -7362.9399   -278.31302    27339.482    5.3397656 
    5680    626.09238   -7432.9041   -7363.0625   -415.08085    27357.224    5.3451584 
    5690    624.74979   -7432.8659   -7363.1742   -393.95716    27373.913    5.3479563 
    5700    616.27885   -7432.0172   -7363.2704   -190.20601    27389.598    5.3486612 
    5710    609.65912   -7431.3434    -7363.335    99.072086    27404.839    5.3489665 
    5720    616.98338   -7432.1783   -7363.3528    123.29758    27420.405    5.3506564 
    5730    629.18389   -7433.5154    -7363.329   -90.872988    27436.381    5.3558938 
    5740    631.70008   -7433.7472   -7363.2801   -129.14662    27452.266    5.3634993 
    5750    634.91462   -7434.0406   -7363.2149    20.726242    27467.954    5.3692105 
    5760    641.70726    -7434.719   -7363.1356    127.37403    27483.792    5.3709126 
    5770    649.32648   -7435.4859   -7363.0525    171.77028    27500.112    5.3682825 
    5780    654.15883   -7435.9574    -7362.985    192.57185    27517.064    5.3621887 
    5790    637.21664   -7434.0182   -7362.9357    492.72578    27534.813    5.3534201 
    5800    630.25167   -7433.1922   -7362.8867    565.42062    27554.108    5.3428735 
    5810    627.33411   -7432.7837   -7362.8036    443.34866    27575.197    5.3340454 
    5820    629.76835   -7432.9326    -7362.681    389.11075    27597.803    5.3272733 
    5830    642.38447   -7434.1834   -7362.5244    181.64663    27621.719     5.319049 
    5840     640.5355   -7433.8021   -7362.3494   -95.991933    27646.348    5.3076079 
    5850    626.74325   -7432.0733   -7362.1592   -143.13787     27670.95    5.2947159 
    5860    622.93905   -7431.4233   -7361.9335   -200.47316    27695.291    5.2821087 
    5870    620.69167   -7430.8914   -7361.6523   -294.96646    27719.168    5.2691734 
    5880    612.27285   -7429.6071   -7361.3072   -328.83197    27742.345    5.2558905 
    5890    613.97346   -7429.3773   -7360.8876   -486.48977    27764.646    5.2433275 
    5900    631.07874   -7430.7914   -7360.3936   -639.31891    27785.592    5.2308738 
    5910    644.64532   -7431.7697   -7359.8585   -653.78968    27804.766    5.2175003 
    5920    657.07604   -7432.6313   -7359.3335   -693.60667    27822.079    5.2034816 
    5930    652.51294   -7431.6464   -7358.8576   -670.36203    27837.425    5.1884293 
    5940    636.33656   -7429.4259   -7358.4416   -530.89118    27850.889    5.1701544 
    5950    635.28589   -7428.9236   -7358.0565   -639.72621    27862.751    5.1474183 
    5960    649.44922    -7430.134    -7357.687    -850.0628    27872.714    5.1217305 
    5970    663.12531   -7431.3297   -7357.3571   -962.21329    27880.165    5.0976947 
    5980     662.7973   -7431.0311    -7357.095   -747.81441    27884.829    5.0789385 
    5990    670.35601   -7431.6881   -7356.9088    -499.1436    27887.241     5.064776 
    6000    675.99873   -7432.2116   -7356.8029   -394.75392    27888.101    5.0552636 
    6010    671.65265   -7431.7136   -7356.7897   -425.31199    27887.734    5.0517604 
    6020     658.7785   -7430.3378     -7356.85   -551.61861    27886.042    5.0543006 
    6030    656.40729   -7430.1879   -7356.9647   -770.93586    27882.624    5.0600251 
    6040    648.86806    -7429.503   -7357.1208   -1098.2475     27876.77    5.0658038 
    6050    639.73955   -7428.6699    -7357.306    -1166.235    27867.589    5.0674753 
    6060    626.42402   -7427.3711   -7357.4925   -1110.5955    27854.789    5.0642915 
    6070    627.00377   -7427.6022    -7357.659    -1287.042     27838.42    5.0587361 
    6080    646.74979   -7429.9683   -7357.8224   -1488.5574    27817.988    5.0525321 
    6090    655.86635   -7431.1796   -7358.0167   -1317.4394    27792.964    5.0476551 
    6100    649.80881   -7430.7378   -7358.2506   -1015.2628    27763.777    5.0448339 
    6110    656.22399    -7431.724   -7358.5213   -815.50649    27731.287    5.0396559 
    6120    670.08388   -7433.6012   -7358.8523   -487.36918    27696.169    5.0291327 
    6130    663.80557   -7433.3113   -7359.2628   -29.933347    27659.448    5.0148262 
    6140    652.32295   -7432.5064   -7359.7388    93.114148    27622.372    4.9981501 
    6150    656.55693   -7433.5119   -7360.2719    144.08899    27585.412    4.9781948 
    6160    646.17658   -7432.9284   -7360.8464    425.01327    27548.816    4.9565266 
    6170    618.54383   -7430.3912   -7361.3917    791.18551    27513.399     4.936645 
    6180    607.30335   -7429.5946    -7361.849     893.2016    27480.172    4.9189245 
    6190    613.02011   -7430.5908   -7362.2075     753.7797    27449.449    4.9022355 
    6200    608.42548   -7430.3412   -7362.4704    732.04093    27420.929    4.8872242 
    6210    611.29173   -7430.8321   -7362.6416     742.6045    27394.526    4.8761496 
    6220    630.51186   -7433.0817   -7362.7471    768.24252    27370.254    4.8697382 
    6230    639.21949   -7434.1214   -7362.8156    970.71044    27348.248    4.8654726 
    6240    645.00079   -7434.8314   -7362.8806    1023.0372    27328.976    4.8616637 
    6250     642.3428   -7434.6015   -7362.9472    1107.5987    27312.685    4.8585937 
    6260    648.70297   -7435.3862   -7363.0224    912.96832    27299.511     4.855424 
    6270    642.90495   -7434.8251   -7363.1081    748.63151    27288.988     4.853057 
    6280    628.77671   -7433.3289   -7363.1879    517.42572    27280.606    4.8519328 
    6290    627.82341   -7433.2801   -7363.2455    221.51573    27273.703    4.8515075 
    6300    626.61224   -7433.1739   -7363.2743    51.339144    27267.455    4.8523499 
    6310    627.85929   -7433.3183   -7363.2797   -65.379947    27261.321    4.8553911 
    6320    626.10815   -7433.1083    -7363.265    19.747445    27255.022    4.8597646 
    6330    615.60767   -7431.8959   -7363.2239    158.00862    27248.772    4.8615125 
    6340    613.20584   -7431.5488   -7363.1448    188.00186    27242.939    4.8564335 
    6350    616.76383   -7431.8232   -7363.0222    228.38864    27237.641    4.8461523 
    6360    626.56773   -7432.7611   -7362.8665    327.17349    27233.019    4.8352854 
    6370    641.34525   -7434.2435   -7362.7004    113.64403    27229.218     4.825531 
    6380    642.47688   -7434.2131   -7362.5438   -16.052924     27225.75    4.8181586 
    6390    640.97261   -7433.9057   -7362.4042    54.478582    27222.264    4.8141089 
    6400    644.67843   -7434.1914   -7362.2766    234.42945    27218.947    4.8138561 
    6410    647.07898   -7434.3526     -7362.17    269.62064    27216.241    4.8169047 
    6420    625.58118   -7431.8622   -7362.0777    305.40976    27214.308    4.8205387 
    6430    618.19469   -7430.9305     -7361.97     241.1005    27213.223    4.8194636 
    6440    633.09975   -7432.4537   -7361.8305    163.97392    27212.838    4.8134454 
    6450    635.80568   -7432.5987   -7361.6737    302.48231    27212.994    4.8081425 
    6460    632.61597   -7432.0843   -7361.5151    447.61435    27214.031    4.8073162 
    6470    628.81914    -7431.491   -7361.3453    397.85688    27216.357    4.8101808 
    6480    631.75839   -7431.6308   -7361.1572      135.182    27219.828     4.815812 
    6490    635.50977   -7431.8428   -7360.9507    62.600032    27223.781    4.8246347 
    6500    635.18919   -7431.5888   -7360.7325       441.92    27228.095    4.8360041 
    6510    645.80292   -7432.5467   -7360.5064    812.68831    27233.766    4.8478925 
    6520    665.75472   -7434.5544   -7360.2885    952.26323    27241.847    4.8595476 
    6530    674.75937   -7435.3866   -7360.1162     927.8743    27252.818    4.8738722 
    6540    679.53994   -7435.8285   -7360.0248    573.11231    27266.615    4.8913894 
    6550    669.11165   -7434.6594    -7360.019    40.143487    27282.295    4.9089258 
    6560    661.13528   -7433.8397    -7360.089   -476.96758    27298.374    4.9230972 
    6570    662.41211   -7434.1202   -7360.2271   -774.41163    27313.384    4.9323788 
    6580    663.28847   -7434.4416   -7360.4508   -735.00999    27326.454    4.9367789 
    6590    661.68496   -7434.6009    -7360.789   -578.60637    27337.622    4.9373782 
    6600    647.41099   -7433.4725   -7361.2528   -454.66563    27347.276    4.9388911 
    6610    626.51136   -7431.7079   -7361.8196   -405.77331    27355.741    4.9466886 
    6620    616.16787   -7431.1851   -7362.4507   -462.33981     27363.14    4.9611223 
    6630    609.47713   -7431.0924   -7363.1043     -512.821    27369.315    4.9791348 
    6640    610.38808   -7431.8391   -7363.7494   -441.09883    27374.112     4.998746 
    6650    603.18854   -7431.6363   -7364.3497   -367.79219    27377.694    5.0198355 
    6660    593.30562   -7431.0433   -7364.8592   -476.68827      27380.2    5.0405152 
    6670    589.93901   -7431.0623   -7365.2537   -447.40168    27381.372    5.0567045 
    6680    599.80914   -7432.4453   -7365.5357   -310.67019    27381.279    5.0674094 
    6690    614.91089   -7434.3295   -7365.7353   -485.27694    27380.169    5.0765954 
    6700    611.16796   -7434.0519   -7365.8752   -806.49456    27377.546    5.0886239 
    6710    596.18471   -7432.4537   -7365.9483   -916.88765    27372.538    5.1039979 
    6720    600.74803   -7432.9622   -7365.9478   -975.22387    27364.692    5.1212045 
    6730    609.16812    -7433.828   -7365.8744   -926.53999    27353.797    5.1395043 
    6740     614.6443   -7434.3112   -7365.7467   -910.14179    27339.895    5.1583733 
    6750    618.33334   -7434.5534   -7365.5774   -944.41198    27322.963    5.1772588 
    6760     622.3113   -7434.7955   -7365.3757    -840.7541    27302.886    5.1958814 
    6770     620.0822   -7434.3218   -7365.1507   -806.76314     27279.83    5.2171906 
    6780    613.05247    -7433.282   -7364.8951   -625.10751    27253.938    5.2423803 
    6790    624.79128   -7434.2993   -7364.6029   -590.44662    27225.564     5.268667 
    6800     634.3998   -7435.0513   -7364.2831   -438.06028    27194.878    5.2946526 
    6810    644.22211   -7435.8319   -7363.9679   -178.72242     27162.27    5.3191227 
    6820    647.34414   -7435.8867   -7363.6745    297.56689    27128.537    5.3419565 
    6830    636.61146   -7434.4274   -7363.4124    662.41817    27094.985    5.3644181 
    6840    620.71009   -7432.4051   -7363.1639    961.08129    27062.731     5.389814 
    6850    630.49626    -7433.247   -7362.9142    1021.0336    27032.587    5.4200178 
    6860    643.81024   -7434.4885   -7362.6705    1171.4847    27004.875    5.4540326 
    6870     650.2483    -7435.002   -7362.4658     1561.385    26980.107    5.4878047 
    6880    644.58842    -7434.214   -7362.3092    2019.0544    26959.421    5.5181371 
    6890    635.72858   -7433.1058   -7362.1894    2341.5538    26944.153    5.5439904 
    6900    634.79469   -7432.9004   -7362.0881    2393.7246    26935.304    5.5634659 
    6910    645.56378   -7434.0202   -7362.0066    2151.6079    26933.126    5.5764648 
    6920    650.23384   -7434.4958   -7361.9613     1810.922    26937.101    5.5878167 
    6930    636.35004   -7432.9371   -7361.9513    1484.4007     26946.39    5.6022522 
    6940    616.25835   -7430.6846   -7361.9401    1282.0802    26960.214     5.618158 
    6950    622.63908   -7431.3575   -7361.9012     973.1432    26978.019      5.62786 
    6960    631.61635   -7432.2953   -7361.8375    752.31577    26999.055    5.6285277 
    6970    627.22674   -7431.7361    -7361.768    740.04743    27022.792    5.6241735 
    6980    623.21614   -7431.2094   -7361.6887    654.99341    27049.182    5.6182781 
    6990    627.20721   -7431.5557   -7361.5898    594.94814    27078.107    5.6105216 
    7000    635.08162   -7432.3229   -7361.4786    360.11298    27109.371    5.6008899 
    7010    629.85445   -7431.6202    -7361.359     147.5156    27142.423     5.591121 
    7020     632.4973    -7431.788    -7361.232   -49.681838    27176.652    5.5822203 
    7030    642.43936   -7432.7626   -7361.0975   -199.11956    27211.504    5.5735574 
    7040    644.40859   -7432.8591   -7360.9744   -131.78287    27246.609    5.5634171 
    7050    649.43103   -7433.3199   -7360.8749    -111.9477    27282.058     5.551123 
    7060    648.38807   -7433.1331   -7360.8044   -48.152341    27317.953     5.538204 
    7070    643.40221   -7432.5308   -7360.7584   -203.15475    27354.417    5.5263835 
    7080     646.9436   -7432.8917   -7360.7242   -698.88158    27390.948    5.5157006 
    7090    643.02362   -7432.4314   -7360.7011   -903.69545    27426.247    5.5050389 
    7100    629.68931   -7430.9327   -7360.6899   -726.82811    27459.672    5.4941747 
    7110    622.59448   -7430.1194    -7360.668   -614.32123    27491.557    5.4817204 
    7120    625.82649   -7430.4247   -7360.6128   -728.49736    27522.145    5.4650791 
    7130    632.16323   -7431.0385   -7360.5197    -860.6444    27551.123    5.4422538 
    7140    634.34772   -7431.1621   -7360.3997   -1008.7971    27578.036    5.4143685 
    7150    641.12929   -7431.7885   -7360.2696   -1123.5016    27602.397    5.3847723 
    7160    632.87346   -7430.7296   -7360.1316   -1007.2604    27623.852    5.3569709 
    7170    626.06958   -7429.8143   -7359.9753   -913.79112    27642.605    5.3314905 
    7180    640.30989   -7431.2086   -7359.7811   -1182.2827    27658.789    5.3072861 
    7190    656.65856   -7432.8129   -7359.5616   -1373.2355    27671.661    5.2858102 
    7200    651.00757   -7431.9718   -7359.3509   -1140.5576    27680.683    5.2694635 
    7210    642.00433   -7430.7634   -7359.1468   -985.18069    27686.332    5.2552387 
    7220    646.36371   -7431.0234   -7358.9205   -742.38227    27689.106     5.237192 
    7230    665.43681   -7432.9053   -7358.6748    -481.0927    27689.682    5.2122854 
    7240    670.77197    -7433.259   -7358.4333   -322.72255    27688.791    5.1827621 
    7250    675.40636   -7433.5701   -7358.2275   -377.50567    27686.834    5.1518649 
    7260    669.31524   -7432.7342   -7358.0711   -411.42145    27683.714    5.1227215 
    7270    663.79736    -7432.019   -7357.9714   -468.64775    27679.281    5.0992874 
    7280    662.32994   -7431.8099    -7357.926   -370.00988    27673.412    5.0855769 
    7290    656.84645   -7431.2113   -7357.9391   -93.489574    27666.386    5.0807235 
    7300    658.93192   -7431.5226   -7358.0177     119.9491    27658.983    5.0773827 
    7310    656.36529   -7431.3822   -7358.1636    60.681666    27651.782    5.0713595 
    7320    645.39151   -7430.3644     -7358.37    7.7478632    27644.687    5.0604927 
    7330    645.11169   -7430.5876   -7358.6244   -18.150851    27637.557    5.0440307 
    7340    639.53913    -7430.248   -7358.9064   -19.259573    27630.325     5.026903 
    7350    646.45069   -7431.3296   -7359.2171   -138.62559    27622.932    5.0115977 
    7360    651.76217   -7432.2788   -7359.5738   -204.19439    27615.079    4.9996457 
    7370    651.44939   -7432.6556   -7359.9855   -130.89843    27606.577    4.9938229 
    7380    652.92759   -7433.2785   -7360.4434    85.046465    27597.643    4.9952225 
    7390    655.38071   -7434.0494   -7360.9407    295.82227    27588.895    5.0020333 
    7400    647.42117   -7433.6899    -7361.469    253.00975    27580.901    5.0111172 
    7410    631.51537   -7432.4381   -7361.9916   -10.023112    27573.553    5.0186891 
    7420    629.81752   -7432.7327   -7362.4756   -254.39372    27566.152    5.0224587 
    7430    625.18108    -7432.647   -7362.9071   -371.01783    27557.992    5.0243078 
    7440    618.68591   -7432.2951   -7363.2797   -373.64553    27548.716    5.0244706 
    7450    625.51398   -7433.3688   -7363.5918   -392.41591    27538.264    5.0196098 
    7460      632.649   -7434.4345   -7363.8615   -201.52498    27526.656    5.0083995 
    7470    632.55899   -7434.6581   -7364.0952     96.82625    27514.457    4.9948895 
    7480    637.12918   -7435.3804   -7364.3077    88.895788    27502.428    4.9848371 
    7490     627.9458   -7434.5457   -7364.4974    47.612218    27490.648    4.9821938 
    7500    623.86614   -7434.2471   -7364.6539    110.99333    27479.026     4.985433 
    7510    626.90589   -7434.7078   -7364.7755    242.77765     27467.73    4.9919898 
    7520    628.64219   -7434.9956   -7364.8696    383.12765    27457.141    5.0014606 
    7530    630.27307   -7435.2494   -7364.9415    446.41337    27447.652    5.0119135 
    7540    632.85973     -7435.59   -7364.9936    451.49953    27439.468    5.0177818 
    7550    643.42581   -7436.8204   -7365.0453    265.57342    27432.558    5.0147969 
    7560    643.80034   -7436.9281   -7365.1112    53.257747     27426.42    5.0063084 
    7570    637.88029   -7436.3554   -7365.1989   -36.144233     27420.47    4.9978348 
    7580    614.94666   -7433.8832    -7365.285    82.731972    27414.472      4.99255 
    7590    595.84807    -7431.797   -7365.3292    203.16068    27408.697    4.9907522 
    7600    595.82912   -7431.7582   -7365.2926    372.03198    27403.514    4.9936928 
    7610    608.67786   -7433.0664   -7365.1675    492.92981    27399.406    5.0033652 
    7620    610.24235   -7433.0377   -7364.9643    479.96667    27396.704    5.0170386 
    7630    602.31929   -7431.8737   -7364.6841    542.23186    27395.459    5.0282151 
    7640    616.55505   -7433.0873   -7364.3097    466.40113    27395.783    5.0324116 
    7650    641.73319   -7435.4321   -7363.8457    482.38008    27397.513    5.0313472 
    7660    642.59645     -7435.02   -7363.3374    597.75322    27400.709    5.0329194 
    7670    638.40474   -7434.0334   -7362.8184    556.21988    27405.638    5.0419772 
    7680    645.38052   -7434.2853   -7362.2921    568.38225    27412.252    5.0571952 
    7690    651.20601   -7434.4215   -7361.7784    584.63471    27420.558    5.0736867 
    7700    665.43999   -7435.5465   -7361.3157    590.92999    27430.613    5.0871671 
    7710    670.87254   -7435.7738   -7360.9369    726.78053    27442.484    5.0979738 
    7720    651.03936   -7433.2846   -7360.6602    929.00952    27456.579    5.1092749 
    7730    626.97814   -7430.3867   -7360.4464    999.00153    27473.452    5.1218432 
    7740    627.47543   -7430.2363   -7360.2404    789.44641    27493.257    5.1332438 
    7750    639.69074   -7431.3868   -7360.0283     557.0248    27515.456    5.1450031 
    7760    635.75812    -7430.748   -7359.8282    547.08309    27539.416    5.1605623 
    7770    632.07933   -7430.1607   -7359.6513     709.7648    27565.111    5.1821518 
    7780    641.21682   -7431.0242   -7359.4955    636.44772    27592.897    5.2110278 
    7790     655.9612   -7432.5421   -7359.3686    465.72111    27622.608    5.2423666 
    7800    667.75205   -7433.7811   -7359.2923    207.14708    27653.711    5.2698571 
    7810    669.12685   -7433.9215   -7359.2794   -153.82027    27685.416    5.2920764 
    7820    662.48655   -7433.2261   -7359.3247   -497.69683    27716.653    5.3109142 
    7830    649.15682   -7431.8223   -7359.4079   -610.87643    27746.411    5.3307759 
    7840    639.06874    -7430.791   -7359.5019   -458.22135    27774.325    5.3521564 
    7850    642.00997    -7431.209   -7359.5918   -300.96328    27800.783    5.3708104 
    7860    653.22907   -7432.5531   -7359.6844   -423.85502    27826.152    5.3850395 
    7870    657.12202   -7433.1029      -7359.8   -386.91222    27850.197    5.3969127 
    7880    639.99491   -7431.3197   -7359.9273   -408.74851    27872.957    5.4099591 
    7890    642.11406   -7431.6751   -7360.0463   -831.75139    27894.261    5.4255523 
    7900    653.11893   -7433.0125   -7360.1561   -1359.3083    27912.901    5.4439911 
    7910    648.61139   -7432.6293   -7360.2757   -1520.6807    27927.393    5.4653455 
    7920    636.84777   -7431.4398   -7360.3985   -1220.0424    27937.289    5.4889466 
    7930    642.74319    -7432.217    -7360.518   -1042.5437    27943.333    5.5135388 
    7940    649.23002   -7433.0621   -7360.6395   -941.97703    27946.126    5.5396125 
    7950     657.5867   -7434.1375   -7360.7827   -854.92935    27946.004    5.5661386 
    7960    665.19598   -7435.1672   -7360.9635   -947.94441    27943.208     5.590491 
    7970    663.68746   -7435.2309   -7361.1956   -1093.4384    27937.537    5.6123722 
    7980    649.27728   -7433.8943   -7361.4665    -1143.452    27928.584    5.6347214 
    7990    640.37284   -7433.1846   -7361.7501   -1069.8839     27916.24    5.6583165 
    8000    633.72039    -7432.715   -7362.0225   -1072.5726    27900.693    5.6816123 
    8010     627.7507   -7432.2972   -7362.2707   -1212.4687    27881.948     5.702606 
    8020    627.94257   -7432.5371   -7362.4892    -1479.164    27859.613    5.7194271 
    8030    627.44524    -7432.674   -7362.6816   -1507.0719    27833.009    5.7322976 
    8040    614.79436   -7431.4192    -7362.838    -1310.472    27802.091    5.7434083 
    8050    609.52751   -7430.9331   -7362.9394   -1164.8773    27767.435     5.754332 
    8060    624.09693   -7432.6076   -7362.9886   -964.57392    27729.576    5.7665146 
    8070    630.30683   -7433.3079   -7362.9962   -521.09802     27689.24    5.7801336 
    8080    637.33909   -7434.0757   -7362.9796   -68.423979    27647.725    5.7909023 
    8090    641.39265   -7434.4987   -7362.9504    145.41423    27606.349    5.7959899 
    8100    641.51627   -7434.4871    -7362.925    233.47182     27565.83    5.7965272 
    8110    631.62733   -7433.3624   -7362.9034    373.07229    27526.489    5.7981009 
    8120    615.94486   -7431.5707   -7362.8611    540.01209    27488.717    5.8081009 
    8130    618.00266   -7431.7181    -7362.779    665.44176    27452.972    5.8262625 
    8140    616.31089    -7431.393   -7362.6426    866.92319    27419.658    5.8465873 
    8150    624.04851   -7432.0697   -7362.4562    933.57952    27389.248    5.8626283 
    8160    639.41475   -7433.5565   -7362.2288    1030.6142    27361.972    5.8737373 
    8170    642.48141   -7433.6533   -7361.9835    1010.8541    27338.021       5.8828 
    8180     637.0142   -7432.7902   -7361.7303    960.17731    27317.309    5.8907963 
    8190    640.13286   -7432.8647   -7361.4569    1000.9263    27299.683    5.8986618 
    8200    642.28072   -7432.8006   -7361.1532    1098.5936    27285.199    5.9082994 
    8210     637.8635   -7431.9687    -7360.814    1131.9193    27274.065    5.9198201 
    8220    645.76083   -7432.4634   -7360.4278     1084.637    27266.342    5.9307419 
    8230     646.1561    -7432.065   -7359.9853    1141.3061    27261.914    5.9394693 
    8240    644.04336   -7431.3317   -7359.4877    1104.9073    27260.836    5.9448748 
    8250    645.95405    -7430.978   -7358.9209    1035.1783    27263.001    5.9457538 
    8260     652.3818   -7431.0613   -7358.2872    919.04975    27268.163    5.9420139 
    8270     658.9309    -7431.113   -7357.6083    841.21121    27275.977    5.9331182 
    8280    670.43261    -7431.717   -7356.9292    959.27409    27286.238    5.9194774 
    8290    666.84735   -7430.6867   -7356.2989     1293.906     27299.29    5.9051384 
    8300    665.17086   -7429.9563   -7355.7555    1460.7218    27315.975    5.8936127 
    8310    665.64633   -7429.5552   -7355.3014    1355.6817    27336.752    5.8870495 
    8320    665.68928   -7429.1982   -7354.9396    882.00647    27361.261    5.8856734 
    8330    674.53834   -7429.9115   -7354.6658    249.88908    27388.135    5.8846093 
    8340    674.04527   -7429.6728    -7354.482   -30.519198    27415.651    5.8794914 
    8350    661.29989   -7428.1581   -7354.3891    1.7871221     27442.97    5.8692897 
    8360    647.61645   -7426.6013   -7354.3587      114.466    27470.115    5.8563184 
    8370    648.18838   -7426.6631   -7354.3567    153.13332    27497.384    5.8449383 
    8380     671.0551   -7429.2494   -7354.3922    25.671131    27524.851    5.8390825 
    8390    666.47388   -7428.8329   -7354.4867   -90.013731    27552.193    5.8399771 
    8400    664.23651   -7428.7393   -7354.6428   -401.92383    27578.986    5.8440276 
    8410    667.59229    -7429.314   -7354.8431   -608.77312     27604.39    5.8451811 
    8420    680.69806   -7431.0294   -7355.0965   -681.55449    27627.815    5.8394239 
    8430    693.04494   -7432.7369   -7355.4267   -955.02538    27648.935       5.8295 
    8440    677.45162   -7431.4026   -7355.8318   -1027.4343    27667.085    5.8194138 
    8450    650.82049   -7428.8548   -7356.2548    -822.7149    27682.085    5.8090675 
    8460    640.61261   -7428.0994   -7356.6381    -699.1538    27694.446    5.7993357 
    8470    645.93147   -7429.0215   -7356.9668   -861.98434     27704.52    5.7936632 
[...]
   22890     666.1247   -7429.4723   -7355.1651   -604.01962    27308.652    15.569783 
   22900     660.6636   -7428.7518   -7355.0537   -576.86949    27324.094    15.609903 
   22910    660.71583    -7428.718   -7355.0142   -609.10315     27337.81    15.652047 
   22920    656.60972   -7428.2738    -7355.028   -655.97103    27349.719    15.688786 
   22930    642.55466    -7426.753   -7355.0751   -709.75307    27359.675    15.718235 
   22940    632.63348   -7425.6983   -7355.1271   -792.47647    27367.531    15.741635 
   22950    636.15339   -7426.1285   -7355.1646   -899.13222    27373.048    15.759217 
   22960    653.62422   -7428.1167    -7355.204   -1065.1638     27375.88    15.772817 
   22970    652.85463   -7428.0969     -7355.27   -1010.9921    27375.639    15.787182 
   22980    641.32822   -7426.9008   -7355.3597   -799.29291    27372.454    15.803174 
   22990    656.26124   -7428.6762   -7355.4692   -730.96848    27366.852    15.816172 
   23000    662.69458   -7429.5369   -7355.6123   -663.65276    27359.106    15.823774 
   23010     669.1868   -7430.4615   -7355.8127   -637.66833    27349.383    15.827637 
   23020    671.92762   -7431.0348   -7356.0802   -593.78204    27337.796    15.831878 
   23030    659.36677   -7429.9657   -7356.4123   -676.22561    27324.421    15.838032 
   23040    643.32467   -7428.5447   -7356.7808   -627.31046    27309.109    15.841998 
   23050    638.47612   -7428.3741   -7357.1511   -602.21256    27291.938    15.837655 
   23060    641.84404   -7429.1098   -7357.5111    -510.4123    27273.014    15.825971 
   23070    646.87201    -7430.028   -7357.8684   -113.81455    27252.684    15.813324 
   23080    637.94196   -7429.3804    -7358.217     429.2261     27232.09    15.798662 
   23090    640.99262   -7430.0515   -7358.5478     610.3619     27212.68    15.773331 
   23100    646.28584   -7430.9648   -7358.8706    394.20024    27194.998    15.733934 
   23110    634.61026   -7429.9782   -7359.1865    183.16098    27178.532    15.684445 
   23120    627.38809   -7429.4657   -7359.4796    101.83872    27162.678    15.629217 
   23130     616.2495    -7428.467   -7359.7234    388.19663    27147.281    15.572916 
   23140    602.69768   -7427.1243   -7359.8924    800.75704    27133.114    15.520776 
   23150      604.613   -7427.4252   -7359.9797    1071.1591    27121.311    15.477493 
   23160    630.18301   -7430.3013   -7360.0035    1077.8931    27112.606    15.445333 
   23170    653.31731   -7432.8842   -7360.0057    976.46259    27107.043    15.420994 
   23180    647.78538   -7432.2846   -7360.0232    935.52071    27104.355    15.397488 
   23190    641.97758   -7431.6778   -7360.0642    932.57852    27104.395    15.369646 
   23200    645.85983   -7432.1676    -7360.121    871.55949    27107.118    15.338358 
   23210    652.89217   -7433.0377   -7360.2066    625.77152    27112.278    15.307239 
   23220    649.68791   -7432.8023   -7360.3287     537.6392    27119.256     15.27796 
   23230    647.99157   -7432.7664    -7360.482    384.21031    27127.713    15.252279 
   23240    648.29444   -7432.9794   -7360.6612    209.42252     27137.21    15.229779 
   23250    642.24747   -7432.5122   -7360.8685    192.78549    27147.267    15.205869 
   23260     626.6711   -7430.9934   -7361.0873    501.93959    27157.914    15.175671 
   23270    621.98387   -7430.6761   -7361.2928    714.02576    27169.904    15.136949 
   23280     629.3173   -7431.6819   -7361.4806    673.33816    27183.798    15.094559 
   23290    631.23259     -7432.08    -7361.665    579.88891    27199.537    15.057153 
   23300    633.04176   -7432.4731   -7361.8563    316.89965    27216.791    15.028374 
   23310    632.77318   -7432.6498    -7362.063    149.46526    27234.883    15.006878 
   23320    622.18333   -7431.6851   -7362.2797    48.771214    27253.284    14.991998 
   23330    616.91828   -7431.3157   -7362.4975    5.5901918    27271.685    14.982566 
   23340    610.21374   -7430.7767   -7362.7064   -21.161325    27289.971    14.977343 
   23350    616.84421   -7431.7174   -7362.9075    -146.6812    27308.032    14.974495 
   23360    628.14566   -7433.1866    -7363.116    -172.4599     27325.55    14.972834 
   23370     625.1122   -7433.0896   -7363.3574   -17.184017    27342.488    14.971289 
   23380    621.88129    -7433.005   -7363.6333   -125.55451    27359.182    14.967878 
   23390    629.92457    -7434.215    -7363.946   -554.18335    27375.281    14.960371 
   23400    625.81943   -7434.1149   -7364.3038   -702.01964    27389.712    14.950717 
   23410    618.68653   -7433.7086   -7364.6931   -744.76278        27402    14.941448 
   23420    626.42621   -7434.9816   -7365.1028   -958.56163    27411.949    14.932238 
   23430    623.45323   -7435.0761   -7365.5289   -1085.7727    27419.037    14.925521 
   23440    603.01081   -7433.2108   -7365.9441    -1183.043    27422.888    14.926935 
   23450    580.00428   -7430.9898   -7366.2894   -1318.0446    27423.208    14.938563 
   23460    582.04835   -7431.4628   -7366.5344   -1322.8287    27419.675    14.953883 
   23470    594.93947   -7433.0451   -7366.6787   -1151.3412    27412.314    14.963406 
   23480    601.33406   -7433.8192   -7366.7395   -972.17507     27401.59    14.961577 
   23490    599.29813   -7433.5752   -7366.7226   -785.18065    27388.075    14.952877 
   23500    599.95932    -7433.551   -7366.6247   -593.92713    27372.341    14.948087 
   23510    604.59514   -7433.8839   -7366.4404   -542.59801    27354.932    14.953975 
   23520    612.85194   -7434.5445   -7366.1799   -714.35833    27335.965    14.971179 
   23530    607.58566   -7433.6239   -7365.8469   -662.10134    27315.079    14.995283 
   23540    610.20657    -7433.512   -7365.4425   -605.84848    27292.355    15.022922 
   23550    615.92439   -7433.6728   -7364.9655   -548.09901    27267.991    15.051706 
   23560    622.93914   -7433.9309   -7364.4411    -404.1689     27242.19    15.073833 
   23570    622.32135   -7433.3151   -7363.8942   -145.30427    27215.398    15.084979 
   23580    626.65314   -7433.2518   -7363.3477    214.34342    27188.375    15.089011 
   23590    638.38554   -7434.0299    -7362.817    473.78627    27162.107    15.091261 
   23600    647.60728   -7434.5755   -7362.3339    639.24627    27137.356    15.097689 
   23610    644.27349   -7433.7945   -7361.9248     650.1429    27114.567    15.116282 
   23620    638.51254   -7432.8098   -7361.5828    533.91748    27093.758    15.148767 
   23630      640.476   -7432.7358   -7361.2898    383.47605    27074.591    15.192824 
   23640     643.2598   -7432.7858   -7361.0292    450.05749    27056.715    15.245484 
   23650    666.81278   -7435.1993   -7360.8154     380.7486    27040.199    15.300809 
   23660    670.98881   -7435.5289   -7360.6791    312.59476    27024.878    15.353241 
   23670    651.31754    -7433.283   -7360.6275    405.64484    27010.592    15.399753 
   23680    640.26296   -7432.0413   -7360.6191    302.47603    26997.493     15.43901 
   23690    636.01162   -7431.5656   -7360.6175    197.13354    26985.354    15.472217 
   23700    635.91212   -7431.5441   -7360.6071     223.5343    26973.899    15.501031 
   23710    641.22351   -7432.1226   -7360.5932    183.53131     26963.11    15.528948 
   23720    632.94525   -7431.1815   -7360.5755    319.85613    26952.969    15.562798 
   23730    644.83279   -7432.4918   -7360.5597    510.51183    26943.811    15.605504 
   23740    660.32599   -7434.2227   -7360.5623    677.18399    26936.148    15.652368 
   23750     653.8562   -7433.5475   -7360.6088    960.80269    26930.508    15.697736 
   23760     643.1262   -7432.4343   -7360.6926    974.89877    26927.562    15.739043 
   23770     650.1976   -7433.3288   -7360.7983    623.45413    26927.298    15.776428 
   23780    656.74719   -7434.1994   -7360.9382    578.43198    26928.894     15.80817 
   23790    647.59491   -7433.3658   -7361.1257    786.29546    26932.185    15.830093 
   23800    631.84291   -7431.8243   -7361.3413    930.46945    26937.693    15.844636 
   23810    627.17305   -7431.5217   -7361.5596    942.00589    26945.822    15.856684 
   23820    635.48686   -7432.6625    -7361.773    800.47955     26956.59    15.870753 
   23830    646.61509   -7434.1351   -7362.0042    391.08608     26969.54    15.891355 
   23840    633.38495   -7432.9156   -7362.2605   -13.751316    26983.573    15.921198 
   23850    622.95097   -7432.0189   -7362.5278   -131.20466    26997.606    15.956296 
   23860    623.40687   -7432.3324   -7362.7904    -91.31606    27011.272    15.990053 
   23870    619.60604    -7432.166    -7363.048   -156.75454    27024.597     16.02159 
   23880    611.04681     -7431.45   -7363.2868   -191.48056    27037.456    16.051636 
   23890    620.28452   -7432.6982   -7363.5046   -144.49983    27049.763     16.07462 
   23900    628.06645   -7433.7767    -7363.715    35.369434    27061.687    16.084315 
   23910     626.8798   -7433.8638   -7363.9344    29.700153    27073.632    16.079004 
   23920    621.51221   -7433.4908   -7364.1602    87.362083    27085.698    16.060697 
   23930    632.15203   -7434.9151   -7364.3976    -150.1929     27097.95    16.039298 
   23940    632.67798    -7435.238   -7364.6618   -371.13478    27109.772     16.02857 
   23950    610.11238   -7433.0092   -7364.9503   -304.05638    27120.593    16.034606 
   23960    591.95758   -7431.2539   -7365.2202   -232.86573    27130.532    16.052602 
   23970    596.91056   -7432.0256   -7365.4393   -232.95939    27139.783    16.069477 
   23980    610.36929   -7433.6942   -7365.6066   -324.18464    27148.321    16.073877 
   23990    616.95764   -7434.5605   -7365.7379   -286.70667    27155.959    16.063505 
   24000    613.03899   -7434.2264   -7365.8409   -238.16163    27162.781    16.041702 
   24010    602.86532   -7433.1505   -7365.8999   -208.97894    27168.914    16.013434 
   24020    603.37934   -7433.2019    -7365.894    -109.9096    27174.466    15.987288 
   24030    608.77383   -7433.7197     -7365.81   -47.229444    27179.697    15.971894 
   24040    617.19488   -7434.4984   -7365.6494   -94.494328    27184.758    15.966118 
   24050    614.55458   -7433.9632   -7365.4087    -84.30547    27189.564    15.968196 
   24060    615.69663   -7433.7702   -7365.0883   -121.03815    27194.114    15.977371 
   24070    628.66923   -7434.8162   -7364.6872   -127.68433    27198.328    15.994209 
   24080    631.74841   -7434.6969   -7364.2244    68.657641    27202.233    16.023025 
   24090    636.62767   -7434.7456   -7363.7289    181.87703    27206.326    16.068678 
   24100    638.72793   -7434.4693   -7363.2183     82.57859    27210.908    16.131855 
   24110    632.35618   -7433.2521   -7362.7118    65.775365    27215.783    16.204003 
   24120    633.83079   -7432.9183   -7362.2135    94.158768    27220.865    16.273037 
   24130    632.82112   -7432.3188   -7361.7266    133.14155     27226.23    16.332697 
   24140    627.48304   -7431.2548   -7361.2582    109.83681    27231.992    16.382447 
   24150    635.32431   -7431.6772   -7360.8058   -16.289244    27238.058    16.425978 
   24160    649.09405     -7432.79   -7360.3825   -181.63261    27244.071    16.466357 
   24170    649.46428   -7432.4601   -7360.0114   -292.22713    27249.589    16.500315 
   24180     663.6134   -7433.7328   -7359.7057   -370.63414    27254.276    16.522035 
   24190    674.91303   -7434.7661   -7359.4785   -342.58853     27257.93    16.532025 
   24200    664.57894   -7433.4809   -7359.3461   -334.81031    27260.613    16.539276 
   24210    654.62566   -7432.3116   -7359.2871   -675.87419    27262.226    16.556738 
   24220    648.10725    -7431.569   -7359.2717   -1059.6775     27261.86    16.591217 
   24230     636.8974   -7430.3293   -7359.2825   -1265.4034    27258.422    16.636525 
   24240    627.42671   -7429.2835   -7359.2931   -1173.9278    27251.345    16.677529 
   24250    631.83491   -7429.7713   -7359.2892    -1017.147    27240.799    16.704116 
   24260    629.54718    -7429.496    -7359.269   -704.94168    27227.288     16.72169 
   24270    630.88395   -7429.6114   -7359.2353   -532.43325    27211.621    16.740861 
   24280    637.64081   -7430.3166   -7359.1868   -395.36708    27194.355     16.76726 
   24290    651.84287    -7431.854   -7359.1399   -349.92088    27175.857    16.797107 
   24300    649.74642    -7431.596   -7359.1158   -372.97123    27156.264    16.827487 
   24310    634.56901   -7429.9007   -7359.1136   -301.97822     27135.56    16.861057 
   24320    626.08874     -7428.95   -7359.1089   -150.84994    27113.957    16.898294 
   24330    623.66074   -7428.6472   -7359.0769   -56.596751    27091.864    16.937511 
   24340    632.83297   -7429.6044    -7359.011   -79.530636    27069.549    16.973337 
   24350    647.70066   -7431.1811   -7358.9292   -201.68633    27046.948     16.99787 
   24360    644.76862   -7430.7778   -7358.8529   -76.950622    27023.812    17.007416 
   24370    635.66953    -7429.693   -7358.7831    94.785023    27000.443    17.004064 
   24380    637.66898   -7429.8349    -7358.702   0.66243387    26977.263    16.993308 
   24390    642.65321   -7430.2945   -7358.6056   -188.79989    26954.052    16.983407 
   24400    640.35192   -7429.9304   -7358.4982   -264.41185    26930.347    16.983343 
   24410    646.49007   -7430.5062   -7358.3893    -350.5779    26905.904    16.993719 
   24420    646.48219   -7430.3945   -7358.2785   -304.27402    26880.529    17.003177 
   24430     651.2622   -7430.8129   -7358.1636   -81.570186    26854.367    16.997953 
   24440    676.60376   -7433.5346   -7358.0584    221.60589    26828.033    16.973205 
   24450    678.29957   -7433.6746   -7358.0092    659.94751    26802.427    16.935351 
   24460    668.41035   -7432.6109   -7358.0487    958.34942     26778.73    16.892694 
   24470    666.39443   -7432.5135   -7358.1762    884.69631    26757.729    16.852346 
   24480    656.24309   -7431.5947   -7358.3898     766.2247    26739.286    16.818035 
   24490    647.43116   -7430.8988   -7358.6768    918.73875    26723.151    16.786144 
   24500    650.27035   -7431.5686     -7359.03    928.23828    26709.625    16.747735 
   24510    649.15701   -7431.8601   -7359.4457    894.27008    26698.775    16.699133 
   24520    651.94863   -7432.6458   -7359.9199    753.82282    26690.449    16.646625 
   24530    649.91125   -7432.9434   -7360.4448     590.9562    26684.261    16.603901 
   24540    644.22621   -7432.8589   -7360.9945    600.57656    26679.812      16.5794 
   24550    648.61438   -7433.9111   -7361.5572    495.86858     26677.02    16.571678 
   24560    641.48136   -7433.6711   -7362.1129    589.51858    26675.693    16.575379 
   24570    628.13403   -7432.6987   -7362.6294    900.18769    26676.097    16.584717 
   24580    621.91779   -7432.4567   -7363.0809    927.64877     26678.94     16.59366 
   24590    619.23349   -7432.5382   -7363.4617     655.3904    26684.306    16.597679 
   24600    615.50785   -7432.4332   -7363.7724    146.54841    26691.439    16.598066 
   24610    609.31293   -7431.9745   -7364.0047   -186.25611    26699.022    16.596388 
   24620    620.43439   -7433.3792   -7364.1688   -313.47549    26706.103    16.592367 
   24630    626.72573   -7434.2005   -7364.2883   -62.833187     26712.39    16.586987 
   24640    609.97932    -7432.413   -7364.3689    452.18708    26718.558    16.579471 
   24650    603.13273   -7431.6732   -7364.3928    796.76549    26725.934    16.567544 
   24660    612.02217   -7432.6242   -7364.3522    1035.4826    26735.516    16.555582 
   24670    617.20119   -7433.1067   -7364.2569    1218.3758    26747.986    16.548967 
   24680     615.0191   -7432.7284   -7364.1221    1413.0211     26763.89     16.54678 
   24690    600.96097   -7430.9791    -7363.941    1672.9363    26783.791    16.545191 
   24700    612.07669   -7431.9792   -7363.7011    1775.5326    26808.361     16.53918 
   24710    636.60901   -7434.4159   -7363.4012    1679.0793    26837.913    16.527147 
   24720     643.0832   -7434.8234   -7363.0865    1424.3895    26872.176    16.515008 
   24730    623.93919   -7432.3805   -7362.7792    1269.7858    26910.508    16.507439 
   24740    628.32794   -7432.5493   -7362.4584     1043.329    26952.403    16.500382 
   24750     658.3582   -7435.5561   -7362.1153    727.47927    26997.209    16.489321 
   24760    659.23448   -7435.3346    -7361.796    452.29949    27044.018    16.475424 
   24770    645.45234   -7433.5298   -7361.5286    289.03894    27092.011    16.463452 
   24780    636.30841   -7432.2746   -7361.2935    193.78446    27140.705    16.455856 
   24790    633.96681   -7431.7799   -7361.0599   -40.716294    27189.756    16.451051 
   24800    644.15679   -7432.6772   -7360.8206    -350.1103     27238.45    16.449122 
   24810    648.45301   -7432.9259   -7360.5899   -494.78422    27285.922    16.449278 
   24820    643.51469    -7432.168    -7360.383   -548.02886    27331.683    16.446318 
   24830    652.28992   -7432.9603   -7360.1964   -805.23556    27375.458    16.432243 
   24840    659.56523   -7433.6085    -7360.033   -1102.8821    27416.529    16.407897 
   24850     646.6356   -7432.0421    -7359.909    -1194.094    27454.066    16.385304 
   24860    635.24451   -7430.6752   -7359.8127    -1176.444     27487.77    16.374079 
   24870    632.78058    -7430.305   -7359.7174   -1258.2171    27517.654    16.375101 
   24880     633.8596    -7430.321    -7359.613   -1324.6287    27543.529    16.385278 
   24890    634.64724   -7430.2982   -7359.5024   -1463.7372    27565.195    16.396534 
   24900    624.45828   -7429.0327   -7359.3734   -1776.2412    27582.245    16.402303 
   24910    614.46401   -7427.7559   -7359.2115   -2069.3857    27593.837    16.402195 
   24920    606.50161   -7426.6483   -7358.9921   -2147.8944    27599.189    16.398844 
   24930    619.18939   -7427.7639   -7358.6924   -1980.6674    27598.146    16.393979 
   24940    646.76579   -7430.4548   -7358.3071   -1858.3045    27591.182    16.390079 
   24950    663.09586   -7431.8347   -7357.8654   -1651.3128    27578.781    16.389208 
   24960    672.28178   -7432.4015   -7357.4074   -1301.6112    27561.628    16.393867 
   24970    677.78939   -7432.5601   -7356.9517   -1006.1999    27540.766    16.411325 
   24980    675.09028   -7431.8199   -7356.5126   -932.55898    27517.089    16.445987 
   24990    672.60319   -7431.1281   -7356.0982   -1108.2049     27490.84      16.4943 
   25000    670.00359   -7430.4427   -7355.7028   -1307.1667    27461.586    16.550154 
Loop time of 12988.3 on 16 procs for 20000 steps with 864 atoms

Performance: 0.133 ns/day, 180.393 hours/ns, 1.540 timesteps/s
97.6% CPU use with 16 MPI tasks x 1 OpenMP threads

MPI task timing breakdown:
Section |  min time  |  avg time  |  max time  |%varavg| %total
---------------------------------------------------------------
Pair    | 8121.5     | 10363      | 12815      |1863.8 | 79.79
Bond    | 0.0015326  | 0.0051886  | 0.0091524  |   3.1 |  0.00
Neigh   | 0.23013    | 0.24261    | 0.26043    |   2.0 |  0.00
Comm    | 123.11     | 2428.2     | 4607.2     |3848.4 | 18.70
Output  | 2.0007     | 2.0343     | 2.5296     |   9.0 |  0.02
Modify  | 47.43      | 194.55     | 394.74     | 957.8 |  1.50
Other   |            | 0.09349    |            |       |  0.00

Nlocal:        54.0000 ave          65 max          48 min
Histogram: 2 2 4 2 3 1 1 0 0 1
Nghost:        426.062 ave         443 max         409 min
Histogram: 1 0 1 1 7 2 0 2 1 1
Neighs:         0.00000 ave           0 max           0 min
Histogram: 16 0 0 0 0 0 0 0 0 0
FullNghs:      1664.38 ave        2037 max        1393 min
Histogram: 2 2 1 3 2 2 2 1 0 1

Total # of neighbors = 26630
Ave neighs/atom = 30.821759
Ave special neighs/atom = 0.0000000
Neighbor list builds = 2000
Dangerous builds = 2000
unfix   3
                
Total wall time: 4:30:04
