LAMMPS (29 Sep 2021 - Update 3)
OMP_NUM_THREADS environment is not set. Defaulting to 1 thread. (src/comm.cpp:98)
  using 1 OpenMP thread(s) per MPI task
Reading data file ...
  orthogonal box = (0.0000000 0.0000000 0.0000000) to (15.969932 15.719106 81.083077)
  2 by 1 by 8 MPI processor grid
  reading atoms ...
  864 atoms
Finding 1-2 1-3 1-4 neighbors ...
  special bond factors lj:    0        0        0       
  special bond factors coul:  0        0        0       
     0 = max # of 1-2 neighbors
     0 = max # of 1-3 neighbors
     0 = max # of 1-4 neighbors
     1 = max # of special neighbors
  special bonds CPU = 0.002 seconds
  read_data CPU = 0.032 seconds
Neighbor list info ...
  update every 1 steps, delay 10 steps, check yes
  max neighbors/atom: 2000, page size: 100000
  master list distance cutoff = 6.22
  ghost atom cutoff = 6.22
  binsize = 3.11, bins = 6 6 27
  1 neighbor lists, perpetual/occasional/extra = 1 0 0
  (1) pair quip, perpetual
      attributes: full, newton on
      pair build: full/bin
      stencil: full/bin/3d
      bin: standard
Setting up Verlet run ...
  Unit style    : metal
  Current step  : 0
  Time step     : 0.001
Per MPI rank memory allocation (min/avg/max) = 8.888 | 8.903 | 8.913 Mbytes
Step Temp PotEng TotEng Press Volume c_msd[4] 
       0            0   -6930.8241   -6930.8241   -4495.9065    20354.533            0 
      10    65.904237   -6938.1841   -6930.8324   -5379.5912    20354.533 0.0005000384 
      20    168.73131   -6949.6632    -6930.841   -6364.5261    20354.533 0.0061479459 
      30    200.57733   -6953.2127    -6930.838   -5696.6671    20354.533  0.020662009 
      40    199.55606   -6953.0935   -6930.8327   -4580.1506    20354.533   0.03833664 
      50    226.88579   -6956.1474   -6930.8379   -4419.7801    20354.533  0.051806208 
      60    238.47957   -6957.4392   -6930.8365   -4645.7272    20354.533  0.061424452 
      70    236.06355   -6957.1692   -6930.8359    -4807.043    20354.533  0.069853138 
      80    232.99362   -6956.8259   -6930.8351    -5036.908    20354.533  0.079308594 
      90    234.23747   -6956.9654   -6930.8358   -5260.6038    20354.533  0.090830495 
     100    232.00556   -6956.7159   -6930.8353   -5208.0306    20354.533   0.10432197 
     110    232.79067   -6956.8033   -6930.8352   -5031.3164    20354.533   0.11840709 
     120    238.30149    -6957.419   -6930.8361   -4942.2097    20354.533   0.13201584 
     130    238.74514   -6957.4687   -6930.8363   -4988.8033    20354.533   0.14538478 
     140    232.54984   -6956.7771   -6930.8358   -4942.4536    20354.533   0.15867927 
     150    225.40044   -6955.9792   -6930.8355   -4787.8719    20354.533   0.17110203 
     160    224.38726   -6955.8659   -6930.8352   -4620.0724    20354.533    0.1817825 
     170    231.86358   -6956.7009   -6930.8362   -4442.3359    20354.533   0.19072597 
     180    237.58036   -6957.3391   -6930.8366   -4192.2572    20354.533   0.19889867 
     190    235.69365   -6957.1279    -6930.836   -3927.7806    20354.533   0.20710191 
     200    234.44619   -6956.9885   -6930.8356   -3773.8119    20354.533   0.21513007 
     210    236.73114   -6957.2437    -6930.836   -3777.5502    20354.533   0.22305549 
     220    238.14425   -6957.4012   -6930.8359   -3899.9101    20354.533    0.2315521 
     230     238.4388   -6957.4341   -6930.8359   -4006.5782    20354.533   0.24098695 
     240    239.23886    -6957.523   -6930.8356   -3984.7528    20354.533   0.25141959 
     250     242.0724   -6957.8401   -6930.8366   -3793.3442    20354.533   0.26265129 
     260       239.05   -6957.5024    -6930.836   -3540.3897    20354.533   0.27417391 
     270    235.84511    -6957.145   -6930.8361   -3272.6541    20354.533   0.28493922 
     280    231.62838   -6956.6748   -6930.8363   -2948.2435    20354.533   0.29437431 
     290    226.51317   -6956.1028    -6930.835   -2633.8875    20354.533   0.30220439 
     300    232.88912   -6956.8151    -6930.836   -2478.1682    20354.533   0.30835486 
     310    239.65399   -6957.5709   -6930.8371   -2317.7128    20354.533   0.31386348 
     320    236.98534   -6957.2718   -6930.8357   -2020.1819    20354.533   0.31985126 
     330    235.73864   -6957.1329   -6930.8359   -1957.4113    20354.533   0.32664959 
     340    236.09186   -6957.1723   -6930.8359   -2003.6376    20354.533   0.33435107 
     350    237.19352   -6957.2955   -6930.8363   -2145.8328    20354.533   0.34289663 
     360     235.6501   -6957.1226   -6930.8355   -2186.0282    20354.533   0.35153924 
     370      237.245   -6957.3009   -6930.8359   -2246.4379    20354.533   0.35886165 
     380     239.0727   -6957.5047   -6930.8358   -2396.5837    20354.533   0.36451066 
     390    241.64207   -6957.7913   -6930.8358   -2701.0958    20354.533   0.36907283 
     400    244.68963   -6958.1321   -6930.8366    -3058.184    20354.533   0.37340775 
     410    240.84575   -6957.7024   -6930.8357   -3233.9135    20354.533   0.37836011 
     420    237.91038    -6957.375   -6930.8357   -3296.1667    20354.533    0.3837999 
     430    237.53548   -6957.3335    -6930.836     -3297.92    20354.533   0.38923076 
     440    236.65311   -6957.2351   -6930.8361   -3132.9159    20354.533   0.39408345 
     450    236.54722   -6957.2227   -6930.8355   -2838.3736    20354.533   0.39819744 
     460    240.22636   -6957.6339   -6930.8363   -2750.9298    20354.533   0.40204023 
     470    240.52465   -6957.6669    -6930.836   -2995.4918    20354.533   0.40599969 
     480    237.66852   -6957.3482   -6930.8359   -3342.9489    20354.533   0.40967234 
     490     233.8587   -6956.9231   -6930.8358   -3484.3142    20354.533   0.41268728 
     500    232.08796   -6956.7258   -6930.8361   -3205.4816    20354.533   0.41521326 
     510    230.70203   -6956.5715   -6930.8364   -2716.5526    20354.533   0.41731564 
     520    228.05602   -6956.2759   -6930.8359   -2363.5724    20354.533   0.41870774 
     530    227.97164    -6956.267   -6930.8365   -2215.6832    20354.533   0.41939371 
     540    224.82248   -6955.9152   -6930.8359   -2142.5726    20354.533   0.41965215 
     550    224.12424   -6955.8368   -6930.8354   -2230.4398    20354.533   0.41896539 
     560    230.14975   -6956.5094   -6930.8358   -2549.6413    20354.533   0.41694428 
     570    236.18881   -6957.1833   -6930.8361   -2919.3179    20354.533   0.41431605 
     580    239.11248   -6957.5092   -6930.8358   -3311.7801    20354.533   0.41218239 
     590    240.41038    -6957.654   -6930.8359   -3417.9605    20354.533   0.41128732 
     600     241.9108   -6957.8213   -6930.8358   -3319.9933    20354.533   0.41181297 
     610    244.71998   -6958.1355   -6930.8366   -3218.6172    20354.533   0.41378595 
     620     241.0794   -6957.7291   -6930.8363   -3147.9995    20354.533   0.41727735 
     630    235.50013   -6957.1059   -6930.8355   -3135.0665    20354.533   0.42154918 
     640    235.11112   -6957.0634   -6930.8364   -3257.6948    20354.533   0.42544554 
     650    231.17765   -6956.6238   -6930.8356   -3363.2824    20354.533   0.42831027 
     660    230.96587      -6956.6   -6930.8354    -3278.616    20354.533   0.42962018 
     670    236.71051   -6957.2418   -6930.8364   -3057.6575    20354.533   0.43008462 
     680    237.89077   -6957.3735   -6930.8365   -2729.6334    20354.533   0.43147958 
     690    233.77068   -6956.9134    -6930.836   -2455.8007    20354.533   0.43467882 
     700    232.73214   -6956.7972   -6930.8356   -2458.1317    20354.533   0.43896836 
     710     238.6713   -6957.4612    -6930.837     -2772.14    20354.533   0.44306523 
     720    238.40713   -6957.4307    -6930.836    -2807.083    20354.533   0.44626276 
     730     240.4682   -6957.6606    -6930.836   -2649.5036    20354.533   0.44805059 
     740    245.36669   -6958.2082   -6930.8372   -2598.8991    20354.533   0.44927166 
     750    241.62154   -6957.7892    -6930.836   -2531.0184    20354.533   0.45180545 
     760    240.83361   -6957.7015   -6930.8361   -2663.8574    20354.533   0.45609454 
     770    242.81641   -6957.9232   -6930.8366   -2904.7405    20354.533   0.46149917 
     780    240.55873   -6957.6716   -6930.8369   -3011.4883    20354.533   0.46731331 
     790    234.48344    -6956.992    -6930.835   -2984.9723    20354.533   0.47270083 
     800    241.36903   -6957.7616   -6930.8365   -3043.6074    20354.533   0.47702973 
     810    248.02611   -6958.5044   -6930.8367   -3212.7271    20354.533   0.48113406 
     820    247.07524   -6958.3983   -6930.8367   -3298.0857    20354.533   0.48604281 
     830    241.62282   -6957.7892   -6930.8358   -3451.0521    20354.533   0.49200069 
     840    241.09937   -6957.7309   -6930.8359   -3767.5583    20354.533    0.4980224 
     850    243.86884   -6958.0407   -6930.8367   -3969.0277    20354.533   0.50315689 
     860    240.67295   -6957.6839   -6930.8364   -3878.9651    20354.533   0.50749313 
     870    234.88256   -6957.0377   -6930.8362   -3705.4216    20354.533   0.51123394 
     880     230.9712   -6956.6008   -6930.8356   -3732.8653    20354.533   0.51418617 
     890    234.71187   -6957.0191   -6930.8366   -3903.3458    20354.533   0.51649556 
     900    236.69755   -6957.2408   -6930.8368   -4096.5729    20354.533   0.51925856 
     910    234.14135   -6956.9543   -6930.8355   -4214.9524    20354.533   0.52270274 
     920     239.2214   -6957.5215    -6930.836    -4371.806    20354.533    0.5260843 
     930    246.23434   -6958.3046   -6930.8368   -4388.3174    20354.533   0.52947161 
     940    244.93011   -6958.1585   -6930.8361    -4140.633    20354.533    0.5331014 
     950    244.54566   -6958.1146   -6930.8351   -3874.4856    20354.533   0.53608506 
     960     253.5944   -6959.1267   -6930.8378   -3771.8165    20354.533   0.53803089 
     970     248.3829   -6958.5442   -6930.8367   -3524.3442    20354.533   0.53986141 
     980    238.35135   -6957.4243   -6930.8358   -3260.4338    20354.533   0.54101785 
     990    236.50322   -6957.2181   -6930.8358   -3175.8957    20354.533   0.54134372 
    1000    241.19481   -6957.7423   -6930.8367   -3304.4267    20354.533   0.54225539 
    1010    241.95562   -6957.8272   -6930.8367   -3391.2596    20354.533   0.54502288 
    1020    240.16869   -6957.6269   -6930.8357   -3447.0496    20354.533   0.54930268 
    1030    245.53617   -6958.2267   -6930.8368   -3456.4918    20354.533   0.55419445 
    1040    247.77076    -6958.476   -6930.8368   -3298.5887    20354.533   0.55950896 
    1050     244.2442   -6958.0816   -6930.8358   -3136.4369    20354.533   0.56417367 
    1060    244.98518   -6958.1647   -6930.8363    -3248.508    20354.533   0.56688242 
    1070    245.91228   -6958.2687   -6930.8368   -3519.1406    20354.533   0.56812185 
    1080    243.86214    -6958.039   -6930.8358   -3692.2455    20354.533   0.56934968 
    1090    246.84293   -6958.3726   -6930.8369   -3906.5524    20354.533   0.57178329 
    1100      244.881   -6958.1533   -6930.8365   -4089.2355    20354.533   0.57651628 
    1110    240.43499   -6957.6569    -6930.836   -4077.0823    20354.533    0.5832495 
    1120    237.92872   -6957.3775   -6930.8362   -4003.4461    20354.533   0.59023617 
    1130    236.51172   -6957.2189   -6930.8357   -4042.4172    20354.533   0.59550452 
    1140    238.96444   -6957.4936   -6930.8368   -4040.0227    20354.533   0.59831056 
    1150    235.78148   -6957.1379   -6930.8361   -3879.2914    20354.533   0.59921996 
    1160    234.20341   -6956.9615   -6930.8358   -3837.8249    20354.533    0.5985221 
    1170    240.41902   -6957.6544   -6930.8353    -3935.141    20354.533   0.59722217 
    1180    255.54411   -6959.3435   -6930.8372     -4092.55    20354.533   0.59743217 
    1190    258.99242   -6959.7285   -6930.8375   -4046.2257    20354.533    0.6011544 
    1200    248.88394   -6958.5986   -6930.8352   -3714.2841    20354.533   0.60762836 
    1210    248.47025   -6958.5542    -6930.837   -3470.6197    20354.533   0.61448368 
    1220    244.95446   -6958.1613   -6930.8363   -3177.7538    20354.533   0.62050251 
    1230     241.8534   -6957.8153   -6930.8362   -3046.6572    20354.533   0.62473384 
    1240    239.93171   -6957.6017    -6930.837   -2953.8402    20354.533   0.62763822 
    1250    233.26136   -6956.8559   -6930.8352   -2777.3686    20354.533   0.63038166 
    1260    237.93988   -6957.3787   -6930.8361   -2775.1391    20354.533    0.6330371 
    1270    246.35675   -6958.3182   -6930.8368   -2888.4422    20354.533   0.63643977 
    1280    248.45813   -6958.5525   -6930.8366   -2920.0425    20354.533   0.64183599 
    1290    245.47675   -6958.2198   -6930.8365   -2685.1116    20354.533   0.64908358 
    1300    241.63357   -6957.7906    -6930.836   -2354.7632    20354.533   0.65669456 
    1310    242.43427   -6957.8804   -6930.8365   -2080.8148    20354.533   0.66291632 
    1320    245.28186   -6958.1979   -6930.8364   -1915.3295    20354.533    0.6669735 
    1330    248.60459   -6958.5691   -6930.8369   -2012.6907    20354.533   0.66938419 
    1340    247.35187   -6958.4291   -6930.8367   -2148.5782    20354.533   0.67162517 
    1350    244.12194   -6958.0683   -6930.8361   -1975.6824    20354.533   0.67460298 
    1360    246.17117   -6958.2975   -6930.8367   -1695.7314    20354.533   0.67795806 
    1370    247.81913   -6958.4815   -6930.8369   -1406.6961    20354.533   0.68155459 
    1380    246.54204   -6958.3387   -6930.8366   -1365.9532    20354.533   0.68550067 
    1390    245.37096   -6958.2083   -6930.8368   -1609.7263    20354.533   0.68946972 
    1400    243.36629   -6957.9841   -6930.8362   -2040.6718    20354.533   0.69316197 
    1410    243.94371   -6958.0489   -6930.8367    -2492.182    20354.533   0.69632692 
    1420    241.91407   -6957.8222   -6930.8364   -2641.5513    20354.533   0.69908731 
    1430    240.29252    -6957.641   -6930.8361   -2738.6597    20354.533   0.70169952 
    1440    243.00906   -6957.9446   -6930.8366   -2920.7186    20354.533   0.70454594 
    1450    244.25454   -6958.0838   -6930.8369   -3048.4377    20354.533   0.70795341 
    1460    242.09952    -6957.843   -6930.8364   -2976.5792    20354.533   0.71130224 
    1470    243.45842   -6957.9943   -6930.8362   -3081.8274    20354.533    0.7132231 
    1480    250.70065   -6958.8033   -6930.8373   -3338.8349    20354.533   0.71370178 
    1490    252.18388   -6958.9685    -6930.837   -3376.1382    20354.533    0.7144344 
    1500    251.43885   -6958.8853   -6930.8369   -3315.8008    20354.533   0.71637247 
    1510    251.24938    -6958.864   -6930.8368   -3301.7557    20354.533   0.71942223 
    1520    249.70733   -6958.6922    -6930.837   -3282.0336    20354.533   0.72323431 
    1530    244.44696   -6958.1054    -6930.837   -3302.2244    20354.533   0.72763008 
    1540    236.75683   -6957.2464   -6930.8358   -3274.9713    20354.533    0.7323608 
    1550    237.57971   -6957.3389   -6930.8365   -3428.4116    20354.533   0.73683196 
    1560    241.15015   -6957.7371   -6930.8364   -3593.4236    20354.533   0.74115804 
    1570    245.97302   -6958.2754   -6930.8368   -3733.6516    20354.533   0.74547586 
    1580    248.38573   -6958.5448    -6930.837   -3697.1233    20354.533   0.74963233 
    1590    246.86432   -6958.3746   -6930.8366   -3466.8015    20354.533   0.75351214 
    1600     247.7118   -6958.4687    -6930.836   -3388.9239    20354.533   0.75677589 
    1610    253.82537   -6959.1519   -6930.8373    -3531.034    20354.533   0.75955216 
    1620    251.92871   -6958.9401   -6930.8371   -3648.0728    20354.533   0.76294914 
    1630    244.66821   -6958.1291    -6930.836   -3657.5504    20354.533   0.76703359 
    1640    244.28177   -6958.0866   -6930.8366   -3671.0399    20354.533   0.77099433 
    1650    244.83575   -6958.1483   -6930.8365   -3788.3144    20354.533   0.77508445 
    1660    246.40424   -6958.3232   -6930.8364    -3813.853    20354.533   0.77989624 
    1670     250.2724    -6958.755   -6930.8367   -3565.9239    20354.533   0.78529205 
    1680    252.16532   -6958.9666   -6930.8372   -3320.4462    20354.533   0.79034429 
    1690    248.06278   -6958.5083   -6930.8366    -3241.467    20354.533   0.79410211 
    1700    246.18953   -6958.2989   -6930.8361   -3435.3007    20354.533   0.79613512 
    1710    251.37963   -6958.8788   -6930.8371   -3765.1983    20354.533   0.79697816 
    1720    252.49637   -6959.0036   -6930.8373   -4015.6546    20354.533   0.79809077 
    1730    246.19105   -6958.2991   -6930.8361   -4012.8085    20354.533   0.80001418 
    1740    244.72061   -6958.1349   -6930.8359   -3836.2711    20354.533   0.80174398 
    1750    250.77886   -6958.8116   -6930.8368   -3664.5304    20354.533   0.80300604 
    1760    253.23106   -6959.0851   -6930.8368   -3574.9487    20354.533   0.80474848 
    1770     250.9182   -6958.8268   -6930.8365   -3643.0638    20354.533   0.80759401 
    1780    248.19059    -6958.522   -6930.8359    -3925.933    20354.533   0.81194222 
    1790    251.50586   -6958.8923   -6930.8365   -4358.7518    20354.533   0.81788965 
    1800    254.74644   -6959.2547   -6930.8373   -4555.0094    20354.533   0.82537267 
    1810    250.83969   -6958.8178   -6930.8362   -4276.5786    20354.533   0.83331392 
    1820     251.8855   -6958.9345   -6930.8362   -4012.9598    20354.533   0.83972246 
    1830      255.594   -6959.3496   -6930.8377   -3901.3718    20354.533   0.84445553 
    1840    246.70995   -6958.3569   -6930.8361   -3626.6691    20354.533   0.84851616 
    1850    241.86654   -6957.8157   -6930.8351   -3456.7016    20354.533   0.85180041 
    1860    250.43531   -6958.7737   -6930.8372    -3514.864    20354.533    0.8548436 
    1870    251.67809   -6958.9117   -6930.8366    -3317.435    20354.533   0.85904271 
    1880    249.74232   -6958.6953   -6930.8361   -2814.4162    20354.533   0.86408884 
    1890    251.03758   -6958.8407    -6930.837   -2598.2462    20354.533   0.86903478 
    1900    247.47063   -6958.4421   -6930.8364   -2762.2368    20354.533   0.87371783 
    1910    246.41436   -6958.3238   -6930.8359   -3170.3298    20354.533   0.87809892 
    1920    252.32808   -6958.9847   -6930.8371   -3481.0709    20354.533    0.8826292 
    1930    251.70282   -6958.9148    -6930.837   -3522.0143    20354.533   0.88826081 
    1940    246.41342   -6958.3234   -6930.8356   -3409.4835    20354.533   0.89502972 
    1950     251.5574   -6958.8983   -6930.8367   -3383.3627    20354.533   0.90192896 
    1960    256.70331    -6959.473   -6930.8374   -3284.7665    20354.533   0.90797257 
    1970    251.99325   -6958.9465   -6930.8363   -3170.8424    20354.533   0.91214044 
    1980    249.36931   -6958.6536    -6930.836    -3268.664    20354.533   0.91382089 
    1990    253.19383   -6959.0808   -6930.8367   -3484.4565    20354.533   0.91429439 
    2000    255.75062   -6959.3664    -6930.837   -3645.8324    20354.533   0.91593526 
Loop time of 1511.02 on 16 procs for 2000 steps with 864 atoms

Performance: 0.114 ns/day, 209.864 hours/ns, 1.324 timesteps/s
97.4% CPU use with 16 MPI tasks x 1 OpenMP threads

MPI task timing breakdown:
Section |  min time  |  avg time  |  max time  |%varavg| %total
---------------------------------------------------------------
Pair    | 711.45     | 1231.4     | 1498.4     | 580.8 | 81.49
Bond    | 0.00022078 | 0.00066224 | 0.002352   |   0.0 |  0.00
Neigh   | 0.018075   | 0.028181   | 0.036856   |   3.5 |  0.00
Comm    | 12.439     | 262.06     | 757.44     |1213.8 | 17.34
Output  | 0.12178    | 8.8881     | 21.35      | 275.9 |  0.59
Modify  | 0.0094614  | 0.011      | 0.013607   |   1.2 |  0.00
Other   |            | 8.659      |            |       |  0.57

Nlocal:        54.0000 ave          71 max          39 min
Histogram: 3 2 1 1 0 4 1 0 3 1
Nghost:        497.125 ave         591 max         387 min
Histogram: 1 2 1 1 1 3 2 1 2 2
Neighs:         0.00000 ave           0 max           0 min
Histogram: 16 0 0 0 0 0 0 0 0 0
FullNghs:      2382.00 ave        3956 max        1259 min
Histogram: 3 2 2 0 2 3 1 1 1 1

Total # of neighbors = 38112
Ave neighs/atom = 44.111111
Ave special neighs/atom = 0.0000000
Neighbor list builds = 199
Dangerous builds = 198
Setting up Verlet run ...
  Unit style    : metal
  Current step  : 2000
  Time step     : 0.001
Per MPI rank memory allocation (min/avg/max) = 8.897 | 8.905 | 8.914 Mbytes
Step Temp PotEng TotEng Press Volume c_msd[4] 
    2000          375   -6959.3664   -6917.5346   -2947.7776    20354.533   0.91593526 
    2010    355.41958   -6957.1832   -6917.5356   -2321.5152    20350.599   0.92043277 
    2020    320.35717   -6953.2371   -6917.5008   -1170.9742    20340.346    0.9277307 
    2030     307.7936   -6951.7067   -6917.3719    -369.2991    20326.761   0.93345466 
    2040    309.50678   -6951.6438   -6917.1178    30.577838    20312.072   0.93612106 
    2050    306.57821    -6950.946   -6916.7468    201.66934    20297.416   0.93697429 
    2060    305.39933   -6950.3608    -6916.293    388.57128    20283.334    0.9377261 
    2070    321.05839   -6951.6176    -6915.803    582.35019    20270.317   0.94014902 
    2080    325.39677   -6951.6369   -6915.3384    995.66433    20258.973    0.9459793 
    2090      318.426   -6950.4647   -6914.9438    1296.6251    20250.348   0.95415233 
    2100    323.20132   -6950.6452   -6914.5916    1236.0018    20245.203   0.96195166 
    2110    326.99849   -6950.7218   -6914.2446    915.94026    20243.397   0.96856443 
    2120    329.18843   -6950.6108   -6913.8893    380.47028    20244.062   0.97422656 
    2130    330.76582   -6950.4152   -6913.5178   -100.85008    20245.795   0.97937123 
    2140    324.71837   -6949.3486   -6913.1258   -239.72385    20247.332   0.98447306 
    2150    323.06717   -6948.7473   -6912.7086   -166.53532    20248.266    0.9897135 
    2160    328.88858   -6948.9435   -6912.2555    32.908852    20248.788   0.99541698 
    2170    328.82224    -6948.459   -6911.7784    379.36906     20249.44    1.0014842 
    2180    335.08198   -6948.6757   -6911.2968    521.95243    20251.076    1.0071296 
    2190    338.19296   -6948.5416   -6910.8157    348.57254    20254.089    1.0128752 
    2200    339.91301    -6948.262   -6910.3442   -223.34145    20257.954    1.0187407 
    2210    343.13368     -6948.15   -6909.8729   -823.20491    20261.176    1.0239489 
    2220    346.03645   -6947.9948   -6909.3939   -1218.4442    20262.163    1.0282446 
    2230    352.78082   -6948.2644   -6908.9112   -1402.0568    20259.836    1.0322803 
    2240    348.59806   -6947.3202   -6908.4336   -1071.0553    20253.834    1.0377557 
    2250    341.33909   -6946.0449   -6907.9681   -635.42051    20244.991    1.0453567 
    2260    341.64479   -6945.6132   -6907.5022    -403.6895    20234.458    1.0543129 
    2270    342.44544   -6945.2324   -6907.0321   -218.32196    20222.959    1.0638721 
    2280    345.07071    -6945.054   -6906.5608    -250.1816     20210.96     1.073837 
    2290    352.56342   -6945.4137   -6906.0847   -348.36264    20198.428     1.084286 
    2300    359.08773   -6945.6581   -6905.6013   -142.88905    20185.233    1.0953153 
    2310    362.29517    -6945.534   -6905.1194    181.58312    20171.873    1.1071416 
    2320    372.23954    -6946.174   -6904.6501    419.21404    20159.172    1.1200044 
    2330    376.51979   -6946.2084    -6904.207     659.5595     20147.82    1.1346724 
    2340    375.75178   -6945.7252   -6903.8095    678.00737    20138.393    1.1508783 
    2350    379.64696   -6945.8033   -6903.4531    407.14471     20130.87    1.1678578 
    2360     384.7475   -6946.0507   -6903.1316    393.59955    20124.644    1.1857145 
    2370    381.30726     -6945.38   -6902.8446    637.51703    20119.651    1.2046511 
    2380    378.21881   -6944.7792   -6902.5884    836.91343    20116.443     1.223795 
    2390    374.63974    -6944.145   -6902.3533    885.00037    20115.518     1.242463 
    2400    372.88797   -6943.7272   -6902.1309    771.03189    20116.974    1.2608061 
    2410    381.56125   -6944.4753   -6901.9116     539.1397    20120.461    1.2796883 
    2420    384.79779   -6944.6228    -6901.698    625.73194    20125.426    1.2998734 
    2430    381.18057   -6944.0238   -6901.5026    940.87452    20132.055    1.3207686 
    2440     382.3754    -6943.978   -6901.3235    852.17619    20141.015    1.3400542 
    2450    387.19212   -6944.3574   -6901.1656    459.76117    20152.063    1.3550853 
    2460    385.15385   -6944.0016   -6901.0371    172.56003    20164.185    1.3655596 
    2470     381.6347   -6943.5013   -6900.9293   -24.177088    20176.586    1.3738641 
    2480    382.37287   -6943.4816   -6900.8273   -425.86584    20188.643    1.3826023 
    2490    378.33846   -6942.9338   -6900.7295   -772.84288    20199.343    1.3940019 
    2500    379.93937   -6943.0224   -6900.6396   -1181.4994    20207.733    1.4086684 
    2510    388.40993   -6943.8912   -6900.5634   -1439.2237    20212.795    1.4262573 
    2520    395.10572   -6944.5972   -6900.5225   -1305.9198    20213.946     1.446013 
    2530    392.51614   -6944.3176   -6900.5319   -932.57432    20211.601    1.4662716 
    2540    386.74559   -6943.7276   -6900.5856   -516.30732    20206.797    1.4847007 
    2550    380.59918   -6943.1203   -6900.6639   -113.74101    20200.705    1.5005611 
    2560    378.06939   -6942.9272    -6900.753    85.292907     20194.39    1.5152895 
    2570    377.89884   -6942.9999   -6900.8447    244.56321    20188.443    1.5305281 
    2580    378.79695   -6943.1988   -6900.9435    572.59657    20183.335    1.5469848 
    2590    377.45205   -6943.1561   -6901.0507    1111.8707     20179.94    1.5644226 
    2600    384.57148   -6944.0753   -6901.1757    1369.6883    20179.543    1.5818966 
    2610    389.35466    -6944.762   -6901.3289     1188.474    20182.755    1.5984437 
    2620    386.52011   -6944.6355   -6901.5186    890.59602    20189.094    1.6129322 
    2630    381.30592   -6944.2686   -6901.7334    704.97537    20197.764    1.6259345 
    2640    381.60949   -6944.5313   -6901.9622    429.25943    20208.156    1.6385133 
    2650    379.06075   -6944.4811   -6902.1963   -37.877541    20219.486    1.6508931 
    2660    370.49265   -6943.7552   -6902.4262   -360.47033    20230.563    1.6616524 
    2670     357.9873   -6942.5664   -6902.6323   -317.89903    20240.562    1.6697206 
    2680    357.22891   -6942.6497   -6902.8002    -288.8381    20249.526    1.6752613 
    2690    359.45329   -6943.0298   -6902.9322   -518.65695    20257.504    1.6789835 
    2700    350.52927   -6942.1249   -6903.0228   -776.97279    20263.935    1.6813198 
    2710    355.39321   -6942.7139   -6903.0693   -1124.6295    20268.122     1.682168 
    2720    365.67433     -6943.87   -6903.0785   -1605.4298    20269.129    1.6822358 
    2730     367.9437   -6944.1129   -6903.0682   -1675.6609    20265.852    1.6832264 
    2740    371.82833   -6944.5266   -6903.0486   -1553.6128    20258.091    1.6859663 
    2750    372.83654   -6944.6138   -6903.0233   -1302.1925    20246.247    1.6904347 
    2760    367.67496   -6944.0051   -6902.9904    -930.4788    20231.058     1.696044 
    2770    367.04279   -6943.8824   -6902.9382   -348.63897    20213.621    1.7013171 
    2780    375.56705   -6944.7564   -6902.8613    453.91178    20195.575    1.7046858 
    2790    385.35629   -6945.7643   -6902.7773    966.51048    20178.958     1.705339 
    2800    383.99512   -6945.5462    -6902.711    1307.7288    20165.172     1.703037 
    2810    376.26521   -6944.6349    -6902.662    1650.0286    20155.158    1.6967592 
    2820    383.83082     -6945.44   -6902.6231    1454.7593    20149.637    1.6860922 
    2830     391.9294   -6946.3241   -6902.6038    632.69189    20147.964    1.6741002 
    2840    381.45157   -6945.1641   -6902.6126  0.036465659    20148.078     1.665094 
    2850    371.48496   -6944.0767    -6902.637   -285.55824     20148.25    1.6603041 
    2860    366.37364   -6943.5249   -6902.6554   -231.56197    20147.728    1.6588673 
    2870    367.88851   -6943.6961   -6902.6576   -222.98226    20146.578    1.6592063 
    2880    375.76806   -6944.5658   -6902.6483     -413.448    20144.785    1.6602561 
    2890    371.99631   -6944.1338    -6902.637    -343.3597    20141.972    1.6623765 
    2900    361.06126   -6942.8925   -6902.6155   -143.55349    20138.304    1.6652808 
    2910    366.73777    -6943.481   -6902.5708   -148.95532    20134.247    1.6682356 
    2920    375.80704   -6944.4282   -6902.5063    -240.0619    20129.828    1.6726319 
    2930    377.89606   -6944.5924   -6902.4375   -444.53768    20124.775    1.6797776 
    2940    383.76772    -6945.186   -6902.3761   -799.21456    20118.553    1.6893299 
    2950     385.7999   -6945.3687   -6902.3321   -1114.0894    20110.262    1.7004322 
    2960    384.34959   -6945.1855   -6902.3107   -1005.4648    20099.169    1.7127403 
    2970    383.62214   -6945.1044   -6902.3108   -500.97855    20085.565    1.7262496 
    2980    382.16384   -6944.9538   -6902.3229    343.49067    20070.843    1.7405585 
    2990    390.36307    -6945.894   -6902.3484     989.8639    20057.138    1.7548551 
    3000    391.46641   -6946.0727    -6902.404     1310.333    20046.142    1.7685103 
    3010    384.97318   -6945.4461   -6902.5018     1458.468    20038.709    1.7805994 
    3020    380.42812   -6945.0732   -6902.6359    1418.5924    20035.191    1.7900317 
    3030    374.45937   -6944.5622   -6902.7907    1162.5762    20035.463    1.7960989 
    3040    375.63985   -6944.8621   -6902.9589    641.46777     20038.78    1.7985934 
    3050    369.41467   -6944.3422   -6903.1334    432.54245    20043.892    1.7983548 
    3060    361.21991   -6943.5929   -6903.2983    588.66662     20050.23    1.7942935 
    3070    367.03241   -6944.3901   -6903.4471    731.75252    20058.094    1.7846652 
    3080    365.38882   -6944.3415   -6903.5818     1068.644    20067.923    1.7698018 
    3090    364.24976   -6944.3346    -6903.702    1260.3633    20080.531    1.7505949 
    3100    371.81707   -6945.2868     -6903.81    1048.2085    20096.383    1.7299127 
    3110    368.68135   -6945.0351   -6903.9081    603.88625    20114.932    1.7118431 
    3120    364.21241   -6944.6197   -6903.9913    84.812247    20135.008    1.6974858 
    3130    358.74906   -6944.0666   -6904.0476   -251.68575    20155.286    1.6858469 
    3140    354.43995   -6943.6034   -6904.0651   -640.12101    20174.779    1.6753194 
    3150    365.96086   -6944.8647   -6904.0413   -1295.4604    20192.378    1.6646455 
    3160    373.58406   -6945.6631   -6903.9892   -1875.4386    20206.382    1.6547816 
    3170    368.82065   -6945.0722   -6903.9297   -2025.8657    20215.305    1.6473891 
    3180    367.05298   -6944.8052   -6903.8599   -1836.8915    20218.725    1.6427023 
    3190    375.26653   -6945.6344   -6903.7728   -1457.6309     20217.16    1.6406387 
    3200    374.17254   -6945.4105    -6903.671   -822.10482    20211.728    1.6413409 
    3210    366.47738   -6944.4345   -6903.5534   -425.39758    20204.033    1.6426149 
    3220    367.29146   -6944.3771   -6903.4052   -305.47578    20195.179    1.6415368 
    3230    371.18227    -6944.624    -6903.218   -248.03817    20185.526    1.6378379 
    3240    369.43809   -6944.2045   -6902.9931     32.71427     20175.32    1.6329032 
    3250    374.28148   -6944.4831   -6902.7314    199.86842    20165.216    1.6279485 
    3260    380.10545   -6944.8397   -6902.4384    429.27419    20155.753    1.6247873 
    3270    380.54652   -6944.5866   -6902.1361     509.8543    20147.449    1.6250651 
    3280    375.42725   -6943.7158   -6901.8363    602.67456    20140.575    1.6293293 
    3290    380.54301   -6943.9921   -6901.5419    612.47742    20135.339    1.6371174 
    3300    389.27051   -6944.6833   -6901.2596    635.37788    20131.797    1.6477001 
    3310     387.9697   -6944.2905   -6901.0119    748.52951    20129.997     1.659417 
    3320    382.38602   -6943.4599   -6900.8041    878.32016    20130.266    1.6701618 
    3330    384.50756   -6943.5202   -6900.6278    564.16253    20132.811    1.6796618 
    3340     383.5319   -6943.2636     -6900.48      213.373     20136.89    1.6893017 
    3350    382.42485   -6943.0224   -6900.3623    47.999938    20141.586     1.700047 
    3360    383.28024    -6943.025   -6900.2695    38.462393    20146.458    1.7126347 
    3370    382.38755   -6942.8565   -6900.2006     17.89065    20151.423    1.7276346 
    3380     377.4869   -6942.2529   -6900.1437    124.43305    20156.472    1.7449851 
    3390    379.83921   -6942.4605   -6900.0888     106.8451    20161.805    1.7638409 
    3400    377.09073   -6942.1018   -6900.0367    74.053099    20167.419    1.7824931 
    3410    370.76897   -6941.3487   -6899.9889   -37.426697    20173.234     1.798818 
    3420    370.79153   -6941.2992   -6899.9368   -466.35555    20178.844    1.8117938 
    3430    376.16673   -6941.8428   -6899.8808   -816.16992    20183.202    1.8235216 
    3440    388.09626   -6943.1311   -6899.8384   -969.32087    20185.382    1.8384202 
    3450    385.60716   -6942.8383   -6899.8233   -901.14183    20184.968    1.8588339 
    3460    379.02028   -6942.1094   -6899.8291   -848.69373    20182.107    1.8813866 
    3470    390.94926   -6943.4581   -6899.8471   -1117.1656    20176.853    1.9024063 
    3480    397.34708   -6944.2221   -6899.8975   -1211.0003    20168.617    1.9225971 
    3490    389.60056   -6943.4592   -6899.9986   -853.99773    20157.231    1.9430979 
    3500    383.19062   -6942.8876   -6900.1421   -88.117116    20143.684    1.9650266 
    3510    380.83809   -6942.7962   -6900.3131     795.0974    20130.005    1.9892108 
    3520      383.382    -6943.295   -6900.5282    1086.5906    20118.406    2.0134782 
    3530    380.34788   -6943.2344    -6900.806    792.15843    20109.686    2.0344631 
    3540    385.10139   -6944.1202   -6901.1616    276.91232    20103.099    2.0505437 
    3550    386.26275   -6944.6903   -6901.6021    210.29593    20097.408    2.0634891 
    3560    380.85879   -6944.5956   -6902.1102    555.28814    20092.409    2.0747372 
    3570    376.16612   -6944.5975   -6902.6356    982.97438    20088.951    2.0848264 
    3580    371.73049   -6944.5899   -6903.1228      1292.52    20088.143    2.0930947 
    3590    369.91908   -6944.7908   -6903.5258    1422.8552    20090.804    2.0969057 
    3600    375.36459   -6945.7161   -6903.8436    1220.1446    20097.212    2.0935532 
    3610    374.17885   -6945.8299   -6904.0897    851.89417    20106.865    2.0821086 
    3620    369.72405    -6945.516   -6904.2728    380.78066    20118.798    2.0630051 
    3630    372.64528   -6945.9735   -6904.4044   -233.32131     20131.71    2.0392476 
    3640    375.16944   -6946.3546   -6904.5039   -612.41113    20144.019    2.0159456 
    3650    370.53231   -6945.9149   -6904.5815   -625.49849    20154.724    1.9963087 
    3660    368.28672   -6945.7221   -6904.6392   -585.76419    20163.721    1.9802837 
    3670    369.50643   -6945.8978   -6904.6788    -708.5647    20171.055    1.9663451 
    3680    368.69097   -6945.8329   -6904.7049   -873.04533    20176.421     1.952936 
    3690    366.37551   -6945.5861   -6904.7163   -860.59311    20179.434    1.9391233 
    3700    367.89083    -6945.749   -6904.7102   -722.88604    20180.128    1.9251664 
    3710    374.92011   -6946.5172   -6904.6943   -635.81708    20178.843    1.9120324 
    3720    374.29803   -6946.4326   -6904.6791   -404.99378    20175.877    1.9000318 
    3730    366.63415   -6945.5618   -6904.6632   -82.684424    20171.839    1.8880948 
    3740     366.4981   -6945.5173   -6904.6339    207.42732    20167.572    1.8745241 
    3750    367.78853     -6945.61   -6904.5826    700.91209    20163.941    1.8583866 
    3760    370.91965   -6945.8892   -6904.5126    1018.8264    20162.175    1.8392132 
    3770    372.90748   -6946.0252   -6904.4268    909.63896    20163.087    1.8181181 
    3780    376.87552   -6946.3722   -6904.3311    578.65069    20166.429     1.795506 
    3790      387.213   -6947.4334   -6904.2392     306.6615     20171.36    1.7698377 
    3800    385.29571    -6947.146   -6904.1656    267.36069    20177.159       1.7419 
    3810    375.19673   -6945.9597    -6904.106    362.80971    20183.694     1.713744 
    3820    372.09412   -6945.5506    -6904.043    306.41698    20191.144    1.6870028 
    3830    370.60161   -6945.3108   -6903.9696    187.91051    20199.379     1.662933 
    3840    373.13821   -6945.5112   -6903.8871    90.144328    20208.083    1.6404315 
    3850     375.3863   -6945.6677   -6903.7928    257.16171    20217.055    1.6180182 
    3860    378.90014   -6945.9542   -6903.6873    328.39724    20226.674    1.5955142 
    3870    378.59829   -6945.8088   -6903.5756   -225.26538    20236.965    1.5740794 
    3880    366.62721   -6944.3559   -6903.4581   -711.58339    20246.637    1.5550298 
    3890    366.75463    -6944.238   -6903.3259   -1187.7596    20254.319    1.5386841 
    3900    375.71479   -6945.0848   -6903.1732   -1359.2205    20258.778    1.5268823 
    3910     374.7973   -6944.8213    -6903.012   -1300.8974    20259.528    1.5215607 
    3920    374.36072   -6944.6077   -6902.8472   -1419.5678    20256.675    1.5213889 
    3930    381.27474   -6945.2066   -6902.6748   -1676.5708    20249.911    1.5236536 
    3940    391.65235   -6946.1968   -6902.5074   -1820.9225    20238.618    1.5262198 
    3950    394.29714   -6946.3497   -6902.3653   -1610.5547    20222.521    1.5285585 
    3960     388.1279   -6945.5527   -6902.2565   -1095.5637     20202.22    1.5322528 
    3970    382.98181   -6944.8919   -6902.1697   -564.20922    20179.083    1.5388975 
    3980    375.83404   -6944.0149     -6902.09    -23.04667    20154.568    1.5487722 
    3990    369.94391    -6943.268   -6902.0002     496.4044    20130.146    1.5605036 
    4000     375.0003   -6943.7207   -6901.8889    1019.1938    20107.248    1.5720028 
    4010     378.1666   -6943.9423   -6901.7572    1487.9462     20087.23    1.5825916 
    4020    379.83834   -6943.9897   -6901.6182    1684.7477    20071.274    1.5924742 
    4030    379.63769   -6943.8264   -6901.4773    1593.7762    20059.879    1.6013886 
    4040    381.90598   -6943.9421   -6901.3399    1285.1497    20052.782    1.6079132 
    4050    379.47067   -6943.5341   -6901.2035    1301.5592    20049.264     1.611065 
    4060    378.04615   -6943.2379   -6901.0663    1610.4074    20049.318    1.6103919 
    4070    379.41827   -6943.2493   -6900.9246    2097.5252    20053.748    1.6074164 
    4080    377.33992   -6942.8748    -6900.782     2555.624    20063.808    1.6042276 
    4090    377.98073   -6942.8024   -6900.6381    2438.4134    20080.596    1.6002012 
    4100    384.78595   -6943.4043   -6900.4808    1658.6943    20103.773    1.5925534 
    4110    386.24646   -6943.3945   -6900.3081    709.28479    20131.344    1.5803906 
    4120    380.04396   -6942.5199   -6900.1254    -88.18319    20160.791    1.5654727 
    4130    380.54248   -6942.3775   -6899.9275    -750.0625    20189.954    1.5494164 
    4140    385.10034   -6942.6693   -6899.7108   -1442.9926    20216.966    1.5342019 
    4150    397.11634   -6943.7912   -6899.4923   -1940.1831    20239.986    1.5218394 
    4160    403.20543   -6944.2848   -6899.3066   -2025.0806    20257.696    1.5130758 
    4170    398.89108   -6943.6777   -6899.1808   -1703.1214    20269.916    1.5072503 
    4180    399.48897   -6943.6805   -6899.1169   -1721.4967    20277.323    1.5032202 
    4190    397.24437   -6943.4264   -6899.1132   -1823.4447    20279.949    1.5009916 
    4200    395.31878   -6943.2745   -6899.1761   -1699.0842    20277.619     1.501815 
    4210    390.13898   -6942.8169   -6899.2963   -1415.2766    20270.678    1.5074175 
    4220    385.77096   -6942.4988   -6899.4654   -1047.3507    20259.909    1.5189516 
    4230    373.84492   -6941.3664   -6899.6635   -491.02424    20246.375    1.5360935 
    4240    367.60234   -6940.8721   -6899.8655    80.467873    20231.573    1.5556512 
    4250    365.46108   -6940.8306   -6900.0629    177.71772    20216.945    1.5738896 
    4260    364.60409   -6940.9309   -6900.2587    9.4411307    20202.814    1.5895673 
    4270    366.85127   -6941.3747   -6900.4519    232.40752    20188.872    1.6042237 
    4280    372.04405   -6942.1457   -6900.6437    705.15224    20175.668    1.6182086 
    4290    380.89043   -6943.3363   -6900.8474    970.94686    20164.375    1.6301845 
    4300    388.71102   -6944.4433    -6901.082    1207.2959    20155.776    1.6388676 
    4310    389.56878   -6944.8204   -6901.3634    1572.3835    20150.528    1.6423646 
    4320     385.1132   -6944.6453   -6901.6854    1867.2529    20149.565    1.6377506 
    4330    380.23965    -6944.449   -6902.0327    1912.3493    20153.634    1.6251247 
    4340    375.61122   -6944.2775   -6902.3775    1706.5512     20162.83    1.6083023 
    4350    386.69536    -6945.855   -6902.7186    1260.0253    20176.573    1.5914775 
    4360    381.29737   -6945.5899   -6903.0556    1241.4156    20193.834    1.5788149 
    4370    364.52691    -6944.021   -6903.3575    1477.3961    20214.542    1.5705082 
    4380    372.59681   -6945.1711   -6903.6074    892.86728    20239.062    1.5629991 
    4390    383.15819   -6946.5537   -6903.8118    -159.4964    20265.912    1.5552084 
    4400    376.30779   -6945.9588   -6903.9811   -887.07329    20292.386    1.5481558 
    4410    370.63387   -6945.4612   -6904.1165   -1295.4765    20316.433      1.54162 
    4420    372.55824   -6945.7814   -6904.2219   -1403.9103    20336.914    1.5354369 
    4430    373.74443   -6946.0006   -6904.3088   -1349.4949      20353.5    1.5313011 
    4440    376.74487   -6946.4133   -6904.3869   -1490.6315    20366.255    1.5316887 
    4450    378.40054   -6946.6752    -6904.464   -1576.3172     20374.88    1.5376565 
    4460    374.15612   -6946.2828   -6904.5451   -1602.5907    20379.121     1.547755 
    4470    367.78213   -6945.6492   -6904.6225   -1409.4594    20378.979    1.5588272 
    4480    366.10699   -6945.5244   -6904.6846   -1208.7614    20374.925    1.5672733 
    4490    365.09439    -6945.453   -6904.7261   -1281.1645    20367.428    1.5713837 
    4500    360.93693    -6945.009   -6904.7459    -1165.733    20356.452    1.5732187 
    4510     357.1573    -6944.573   -6904.7315   -881.62701     20342.32    1.5767218 
    4520    362.51753   -6945.1155   -6904.6761   -560.40938    20325.806     1.584828 
    4530    365.19697   -6945.3228   -6904.5846   -125.58607    20307.842    1.5985753 
    4540    364.36745    -6945.111   -6904.4653    324.42157    20289.603    1.6159955 
    4550    372.55047   -6945.8829   -6904.3243    615.13224     20272.28    1.6338618 
    4560    382.03729   -6946.7905   -6904.1737    892.02283    20256.739    1.6508468 
    4570     382.8972   -6946.7468   -6904.0341    1015.1144    20243.681    1.6678355 
    4580    375.99565   -6945.8543   -6903.9115     818.4197    20233.374    1.6859983 
    4590    380.70933   -6946.2679   -6903.7992    443.67449    20225.295    1.7048677 
    4600    384.82934   -6946.6281   -6903.6998    471.20284     20218.56    1.7238686 
    4610    372.07519   -6945.1183   -6903.6128    866.23868    20213.235    1.7416887 
    4620    367.18428   -6944.4796   -6903.5197    884.24257    20210.207    1.7555722 
    4630    376.80444   -6945.4393   -6903.4062    535.03336    20209.505    1.7655398 
    4640    381.75781   -6945.8717   -6903.2861    285.51453    20210.299    1.7749019 
    4650    377.43328    -6945.275   -6903.1717   -58.119158    20211.857      1.78588 
    4660    379.04432   -6945.3453   -6903.0623   -439.85018    20213.248    1.7975112 
    4670    372.31161   -6944.4817   -6902.9498   -691.84295    20213.455    1.8074387 
    4680    372.33288   -6944.3629   -6902.8286   -784.09704    20211.818    1.8124785 
    4690    378.38291      -6944.9   -6902.6908   -716.77458    20208.086    1.8107134 
    4700    377.69079   -6944.6696   -6902.5376    -560.4026    20202.414    1.8031791 
    4710    385.06652   -6945.3246   -6902.3698    -463.7756    20195.204    1.7921943 
    4720    389.57141   -6945.6478   -6902.1905    -350.9915    20186.752     1.780654 
    4730    383.11149   -6944.7462   -6902.0096   -88.315886    20177.374    1.7705147 
    4740    383.96964   -6944.6532   -6901.8208    223.69985    20167.774    1.7618057 
    4750    387.28593    -6944.818   -6901.6156    613.21482    20158.837    1.7537736 
    4760    389.96281    -6944.903    -6901.402    897.30305     20151.56    1.7459651 
    4770    392.66864    -6944.993   -6901.1903    798.87054    20146.624    1.7391716 
    4780    393.84986   -6944.9246     -6900.99    487.09179    20143.817    1.7332637 
    4790    391.16555   -6944.4419   -6900.8068    172.66685    20142.328    1.7257858 
    4800    394.79636   -6944.6813   -6900.6412    71.448436    20141.365    1.7136923 
    4810    396.47715   -6944.7187   -6900.4911     261.3376    20140.679    1.6971487 
    4820    392.68417   -6944.1736   -6900.3691    607.80117    20140.748    1.6791956 
    4830    381.11908   -6942.7895    -6900.275    1096.4047    20142.516    1.6628829 
    4840    375.02147   -6942.0278   -6900.1936    1403.7048    20147.246    1.6492763 
    4850    389.44455   -6943.5553   -6900.1122    975.00452    20155.604    1.6384587 
    4860    401.91654   -6944.8819   -6900.0475    467.16351    20166.573     1.630703 
    4870    403.18585   -6945.0103   -6900.0343    208.38094    20178.861    1.6246796 
    4880    399.31209   -6944.6322   -6900.0883   -166.98257    20191.633    1.6186497 
    4890     385.2742   -6943.1829    -6900.205   -309.66017    20203.974    1.6123089 
    4900    374.73735   -6942.1686   -6900.3661    -493.7174    20215.425    1.6049516 
    4910    372.67183   -6942.1219   -6900.5498   -707.90195      20225.5     1.595978 
    4920    381.14468   -6943.2698   -6900.7525   -929.72078    20233.609    1.5865824 
    4930    391.31897   -6944.6471   -6900.9949   -1125.8834    20239.155    1.5793204 
    4940     383.6187   -6944.0785   -6901.2853   -977.90063    20241.699    1.5753493 
    4950    370.61815   -6942.9403   -6901.5973   -989.38975    20241.514    1.5728386 
    4960    370.98147    -6943.289   -6901.9054   -1290.8183    20238.565    1.5697716 
    4970     378.6058   -6944.4488   -6902.2148   -1549.0197    20232.085    1.5671387 
    4980    374.49161   -6944.2988   -6902.5237   -1443.3687    20221.451    1.5678555 
    4990    369.06716   -6943.9803   -6902.8103    -1110.488    20206.941    1.5726584 
    5000    374.70057   -6944.8655   -6903.0671   -740.65467    20189.402    1.5798649 
Loop time of 2340.26 on 16 procs for 3000 steps with 864 atoms

Performance: 0.111 ns/day, 216.690 hours/ns, 1.282 timesteps/s
97.3% CPU use with 16 MPI tasks x 1 OpenMP threads

MPI task timing breakdown:
Section |  min time  |  avg time  |  max time  |%varavg| %total
---------------------------------------------------------------
Pair    | 1337.4     | 1944.2     | 2317.2     | 599.0 | 83.08
Bond    | 0.00030398 | 0.0008788  | 0.0033958  |   0.0 |  0.00
Neigh   | 0.027718   | 0.042149   | 0.057395   |   4.4 |  0.00
Comm    | 0.54573    | 302.63     | 835.48     |1423.4 | 12.93
Output  | 0.17956    | 0.18251    | 0.22525    |   2.6 |  0.01
Modify  | 0.21078    | 93.215     | 167.18     | 769.8 |  3.98
Other   |            | 0.01555    |            |       |  0.00

Nlocal:        54.0000 ave          69 max          36 min
Histogram: 1 1 2 1 1 2 3 2 1 2
Nghost:        495.500 ave         578 max         401 min
Histogram: 1 1 1 2 1 2 3 3 1 1
Neighs:         0.00000 ave           0 max           0 min
Histogram: 16 0 0 0 0 0 0 0 0 0
FullNghs:      2389.12 ave        3741 max        1171 min
Histogram: 1 2 2 2 1 3 2 1 0 2

Total # of neighbors = 38226
Ave neighs/atom = 44.243056
Ave special neighs/atom = 0.0000000
Neighbor list builds = 300
Dangerous builds = 300
Setting up Verlet run ...
  Unit style    : metal
  Current step  : 5000
  Time step     : 0.001
Per MPI rank memory allocation (min/avg/max) = 8.898 | 8.905 | 8.914 Mbytes
Step Temp PotEng TotEng Press Volume c_msd[4] 
    5000    374.70057   -6944.8655   -6903.0671   -740.65467    20189.402    1.5798649 
    5010    382.12712    -6945.698   -6903.0712   -300.04096    20188.572    1.5824911 
    5020    381.73365   -6945.6716   -6903.0887    178.08613    20186.952    1.5864228 
    5030    380.19323   -6945.5323   -6903.1211    252.92021    20185.727    1.5918518 
    5040    387.39767   -6946.3852   -6903.1704   -200.96335     20185.07    1.5985651 
    5050    390.27945   -6946.7881   -6903.2519   -767.76556     20183.85    1.6074129 
    5060    377.40068   -6945.4654   -6903.3658   -931.67139    20180.652     1.619026 
    5070    376.37804   -6945.4815   -6903.4959   -951.40426    20174.934    1.6315497 
    5080    387.01037   -6946.8187   -6903.6471   -861.53289    20166.627    1.6431875 
    5090    384.92736   -6946.7721   -6903.8329   -470.77167    20156.038    1.6528646 
    5100    382.78508   -6946.7552    -6904.055   -126.54466     20144.13    1.6595717 
    5110    380.47265   -6946.7533    -6904.311    170.56123    20131.847    1.6646534 
    5120    371.22008   -6945.9962    -6904.586    336.89458    20119.974    1.6701779 
    5130     370.2301   -6946.1674   -6904.8677    128.72233    20108.892    1.6766693 
    5140    373.62393   -6946.8352   -6905.1569   -89.993311     20098.14    1.6837738 
    5150    372.17211   -6946.9647   -6905.4484   -119.68075    20087.162    1.6910074 
    5160    369.18199   -6946.9125   -6905.7297   -139.81897    20075.821    1.6982253 
    5170      367.137   -6946.9418   -6905.9871   -30.136718    20064.094    1.7056957 
    5180    371.19696   -6947.6295    -6906.222    381.01481    20052.313    1.7136272 
    5190    369.34353   -6947.6294   -6906.4285    971.43657    20041.576    1.7220335 
    5200    374.13066   -6948.3481   -6906.6133    1129.3949    20033.314    1.7311102 
    5210    370.87446   -6948.1524   -6906.7808    1078.5761    20028.028    1.7421576 
    5220    354.64374    -6946.475   -6906.9139    1258.7454      20025.7    1.7537994 
    5230    347.25163   -6945.7274   -6906.9909    1248.6314    20026.699    1.7619078 
    5240    348.57926   -6945.8897   -6907.0052    1113.4802    20031.057    1.7646521 
    5250     355.6038   -6946.6368   -6906.9686    923.94493    20038.429    1.7627688 
    5260    360.12229   -6947.0708   -6906.8986    767.30302    20048.355    1.7581685 
    5270    364.60507   -6947.4832    -6906.811     633.6513    20060.428    1.7531257 
    5280    374.05871   -6948.4437   -6906.7169    352.93676    20074.259    1.7500951 
    5290    379.97192   -6949.0198   -6906.6333    28.324878    20089.124    1.7508756 
    5300    368.13421   -6947.6313   -6906.5653   -5.3809175    20104.249    1.7537535 
    5310    359.31044   -6946.5785   -6906.4968   -218.42612     20119.41    1.7541532 
    5320    361.32101   -6946.7142   -6906.4083   -654.04536    20134.028     1.751333 
    5330    365.71368   -6947.0981   -6906.3022   -1052.8644    20146.986    1.7481178 
    5340    369.80682   -6947.4438   -6906.1913   -1349.3619    20157.192    1.7461379 
    5350    363.96603    -6946.684   -6906.0831   -1346.8654    20163.867    1.7460182 
    5360    358.91095    -6946.008    -6905.971   -1008.9265    20166.995    1.7467106 
    5370    363.83989   -6946.4335   -6905.8467   -533.06388    20167.414    1.7464864 
    5380    361.04786   -6945.9843   -6905.7088    74.972054    20166.432    1.7453912 
    5390    360.40744   -6945.7634   -6905.5594    421.91264    20165.581    1.7444077 
    5400    367.38217   -6946.3783   -6905.3963    497.18094    20165.825    1.7450984 
    5410    369.90131   -6946.4888   -6905.2258    509.00972    20167.446     1.748361 
    5420    380.63098   -6947.5219   -6905.0619    119.02389    20170.388    1.7523586 
    5430     388.5714   -6948.2637    -6904.918   -405.42049    20173.659    1.7545827 
    5440    382.17149   -6947.4407   -6904.8089   -585.68043    20175.931    1.7540966 
    5450    371.43668   -6946.1584   -6904.7241   -506.36114    20176.711     1.751812 
    5460    372.24051    -6946.167   -6904.6431   -528.79499      20176.1    1.7490807 
    5470    379.47087   -6946.8916    -6904.561   -460.75587     20174.07    1.7468708 
    5480    384.73883   -6947.4094   -6904.4912   -200.70115    20170.795    1.7466028 
    5490    379.06601    -6946.725   -6904.4396    302.08433    20166.992    1.7494842 
    5500    374.15409   -6946.1363   -6904.3988    754.74344    20163.981    1.7548304 
    5510    379.78515   -6946.7292   -6904.3636    783.68281    20162.897     1.761263 
    5520    380.13668   -6946.7447   -6904.3399    649.06361    20163.924    1.7676066 
    5530    370.92022    -6945.701   -6904.3243    199.58705    20166.683    1.7733381 
    5540     371.0348   -6945.6916   -6904.3021   -497.74555    20169.983    1.7795633 
    5550    379.52889    -6946.606    -6904.269    -886.2114    20172.042    1.7878532 
    5560    383.32782   -6947.0023   -6904.2415   -1013.4183     20171.75    1.7973918 
    5570    379.72058   -6946.5888   -6904.2304   -1085.9285    20168.705    1.8053747 
    5580    377.85755   -6946.3846   -6904.2341   -1368.1403    20162.585    1.8102692 
    5590    378.49776   -6946.4727   -6904.2507   -1566.7809    20152.674    1.8136403 
    5600    379.58274   -6946.6264   -6904.2834   -1637.1578    20138.386    1.8188182 
    5610    380.11429   -6946.7344   -6904.3321   -1634.4497     20119.46    1.8285205 
    5620    388.18363   -6947.7085    -6904.406     -1393.33    20095.905    1.8430224 
    5630    388.22511   -6947.8218   -6904.5147   -747.57048    20068.392    1.8611766 
    5640    380.20566   -6947.0653   -6904.6528    180.95349      20038.6    1.8809788 
    5650    377.45361   -6946.9098   -6904.8043    1236.0895    20009.001    1.9002994 
    5660    380.23437   -6947.3929   -6904.9772     2315.701    19982.441    1.9185869 
    5670     378.7311   -6947.4403   -6905.1923    3061.6129    19961.749    1.9366578 
    5680    378.89512   -6947.7334   -6905.4671    3328.8348    19948.967     1.952278 
    5690    385.76124   -6948.8478   -6905.8155    3069.3599    19944.873     1.961868 
    5700    388.28734   -6949.5559   -6906.2419     2544.974    19948.905     1.965257 
    5710    382.66948   -6949.4032   -6906.7159    2083.0169    19959.827     1.965273 
    5720    373.74875   -6948.8793    -6907.187    1745.4428    19976.526    1.9638226 
    5730    361.86217   -6947.9691   -6907.6029    1341.9057    19998.147    1.9612239 
    5740    356.58951    -6947.713   -6907.9349    780.18554    20023.644    1.9566549 
    5750    354.35602   -6947.7042   -6908.1752    258.89364    20051.617    1.9479607 
    5760    357.49591   -6948.2141   -6908.3349    -199.8757    20080.665    1.9331964 
    5770     354.8775   -6948.0153   -6908.4282   -402.78235    20109.586     1.913845 
    5780    349.01942    -6947.399   -6908.4654   -316.37704    20137.841    1.8929731 
    5790    353.00161   -6947.8249   -6908.4471   -633.78438    20165.443    1.8727869 
    5800    360.55623   -6948.5934   -6908.3728   -1120.5325    20191.581    1.8545645 
    5810    371.88757   -6949.7499   -6908.2653   -1512.8175    20214.921    1.8391253 
    5820    375.35285   -6950.0259   -6908.1547   -1591.9628    20234.382    1.8276947 
    5830    361.44862   -6948.3718   -6908.0516   -1224.7136    20249.759    1.8199261 
    5840    360.19524   -6948.1192   -6907.9389   -1020.4967    20261.843     1.813549 
    5850    366.92484   -6948.7314   -6907.8004   -817.57263    20271.211    1.8079829 
    5860    364.31533   -6948.2874   -6907.6474   -375.07244    20278.465     1.804277 
    5870    363.38548   -6948.0195   -6907.4833   -47.741286    20284.714    1.8024156 
    5880    367.56032   -6948.3046   -6907.3026     18.87783    20290.817    1.8020784 
    5890    364.06031    -6947.719   -6907.1075    35.547604     20297.01    1.8038034 
    5900    353.59441   -6946.3374   -6906.8934   -34.127144    20303.332    1.8069412 
    5910    355.72782   -6946.3284   -6906.6464    -422.1177    20309.531    1.8090297 
    5920    366.77326   -6947.2791    -6906.365   -1100.5584    20314.532    1.8090121 
    5930    369.75844   -6947.3223   -6906.0751   -1534.7431    20316.574     1.808003 
    5940    372.82645   -6947.3918   -6905.8024   -1510.9976    20314.478    1.8060062 
    5950    380.67657   -6948.0234   -6905.5583   -1444.9378    20308.185    1.8034401 
    5960    378.10507    -6947.531   -6905.3528   -1355.1452    20297.857    1.8015852 
    5970    381.67497   -6947.7635   -6905.1871   -1271.3661    20283.697     1.800109 
    5980    383.00988   -6947.7758   -6905.0504   -839.27334    20266.035    1.7996788 
    5990     377.7022   -6947.0712    -6904.938   -129.00853    20246.035    1.8001838 
    6000    375.29087   -6946.7022   -6904.8379    342.78927    20225.507    1.8002874 
    6010    382.36893   -6947.4044   -6904.7506    579.24083    20205.738    1.8005387 
    6020     386.7993   -6947.8313   -6904.6833    943.82154    20187.495    1.8027355 
    6030    390.03964   -6948.1583   -6904.6488     1194.805    20171.692    1.8065009 
    6040    380.22602   -6947.0576   -6904.6428    1661.0341    20159.134    1.8116597 
    6050    373.90274   -6946.3622   -6904.6528    1860.3794    20150.963    1.8182933 
    6060    377.67458   -6946.8023   -6904.6722    1496.7006    20147.699    1.8266599 
    6070    377.75263   -6946.8379    -6904.699    918.69503    20148.474    1.8368621 
    6080    381.90291   -6947.3367   -6904.7349     238.0114    20151.738    1.8473483 
    6090    384.77754   -6947.7086   -6904.7861   -310.84598    20155.696    1.8572164 
    6100    378.21395   -6947.0466   -6904.8563   -495.19457     20158.93     1.866048 
    6110    370.18465   -6946.2247   -6904.9301   -519.78463    20160.892    1.8726975 
    6120    371.41925   -6946.4291   -6904.9968   -706.32462    20161.413    1.8783207 
    6130    377.82049   -6947.2036   -6905.0572   -1111.9939    20159.973    1.8864864 
    6140    378.41981    -6947.339   -6905.1257   -1439.8194    20155.513    1.8994027 
    6150    372.55577   -6946.7635   -6905.2043   -1408.4256    20147.174    1.9162946 
    6160    370.27746   -6946.5863   -6905.2813   -1232.4936    20134.962    1.9342233 
    6170    374.28362   -6947.1039    -6905.352   -997.68488    20119.332    1.9499947 
    6180    377.72006   -6947.5586   -6905.4234   -668.87895    20100.913    1.9628557 
    6190    376.71771   -6947.5271   -6905.5037   -213.13679    20080.603    1.9747098 
    6200    370.82995   -6946.9576    -6905.591    192.04636    20059.594    1.9870423 
    6210    366.51603   -6946.5603   -6905.6749    310.12669     20038.93    1.9992905 
    6220    372.57963   -6947.3138    -6905.752    1.6351394    20018.905    2.0103435 
    6230    374.96904   -6947.6672   -6905.8388   -76.327875    19998.886    2.0207212 
    6240    369.14473   -6947.1162   -6905.9375    567.03634    19978.799    2.0301469 
    6250     372.8462   -6947.6369   -6906.0453    1268.8363    19960.182    2.0370662 
    6260    376.24323   -6948.1408   -6906.1703    1593.9441    19944.843    2.0409744 
    6270    374.84049    -6948.145    -6906.331     1547.562    19933.646    2.0420292 
    6280    370.34159   -6947.8435   -6906.5313    1380.6531     19926.52    2.0413709 
    6290    371.87874   -6948.2534   -6906.7698    1048.3981    19923.016    2.0405679 
    6300    372.84116   -6948.6364   -6907.0454    699.52414    19922.281    2.0405026 
    6310     363.5178   -6947.8927   -6907.3418    728.47215    19923.508    2.0407274 
    6320    360.59293   -6947.8581   -6907.6335    786.82538    19926.706    2.0395703 
    6330    371.56295   -6949.3654    -6907.917    330.27358    19931.892    2.0366422 
    6340    373.23816   -6949.8353      -6908.2   0.58951055    19938.029    2.0341334 
    6350    359.54579   -6948.5741   -6908.4663     285.5028    19944.359    2.0327014 
    6360    353.15988   -6948.0875   -6908.6919    597.23857    19951.502     2.029389 
    6370    357.11987   -6948.7064   -6908.8691    465.21457    19960.183    2.0219303 
    6380    365.42585   -6949.7711   -6909.0072    61.708118    19970.102    2.0115694 
    6390    369.68969   -6950.3614    -6909.122   -183.64672    19980.284    2.0015042 
    6400    360.84933     -6949.47   -6909.2167   -2.7352418    19990.133    1.9942921 
    6410    350.82491   -6948.4145   -6909.2795    499.10687    20000.144    1.9900624 
    6420    355.29443     -6948.93   -6909.2963     345.3672    20011.396    1.9875757 
    6430     364.9505   -6949.9806   -6909.2699   -115.75695    20023.574    1.9871798 
    6440    356.30419   -6948.9544   -6909.2082   -68.171817    20035.668    1.9895341 
    6450    356.39598     -6948.87   -6909.1135     9.946103     20047.68      1.99274 
    6460    364.52399   -6949.6419   -6908.9787    -97.30195    20059.774    1.9953639 
    6470    361.23912    -6949.108   -6908.8112   -308.67713    20071.654     1.997651 
    6480    353.57105   -6948.0509   -6908.6096   -416.65358    20082.836    1.9994749 
    6490    355.89081   -6948.0594   -6908.3592   -804.41471    20092.921    2.0007439 
    6500    367.15311   -6949.0147   -6908.0582   -1366.0866    20100.851    2.0023367 
    6510    367.04597   -6948.6773   -6907.7327   -1358.4012    20105.292    2.0048063 
    6520    365.24926   -6948.1547   -6907.4106   -925.90617    20106.168    2.0075681 
    6530     368.6421   -6948.2187   -6907.0962    -363.6532    20104.562     2.010775 
    6540    369.50747   -6948.0199   -6906.8008    154.19488    20101.944    2.0159527 
    6550     365.1853   -6947.2699   -6906.5329    489.16851    20099.689    2.0239968 
    6560    371.06422   -6947.6868    -6906.294    172.53327    20098.581     2.034221 
    6570    376.55349   -6948.0922   -6906.0871   -384.92581    20097.876    2.0460322 
    6580    375.19524   -6947.7744   -6905.9208   -517.66421    20096.233    2.0590579 
    6590    372.56933   -6947.3488   -6905.7881   -311.01237    20093.246    2.0727429 
    6600    375.09542   -6947.5209   -6905.6784   -212.74847    20089.353    2.0863137 
    6610    378.09591   -6947.7614   -6905.5843   -298.19881    20084.808    2.0991557 
    6620    375.11191   -6947.3455   -6905.5012   -339.55827    20079.422     2.110994 
    6630    371.43041   -6946.8582   -6905.4246   -226.55885    20073.104    2.1221689 
    6640    372.60943    -6946.914   -6905.3488   -210.47266    20066.086    2.1334831 
    6650    378.89812   -6947.5416   -6905.2749   -358.51627    20058.407    2.1455363 
    6660    382.58113    -6947.892   -6905.2145   -536.13671     20049.69    2.1584563 
    6670    378.01416   -6947.3417   -6905.1736   -592.05826    20039.466    2.1718802 
    6680    372.92942   -6946.7408   -6905.1399   -251.16044    20027.637    2.1844132 
    6690    382.52435   -6947.7777   -6905.1065    168.26626    20015.029    2.1951765 
    6700    390.68403   -6948.6679   -6905.0865    274.44567    20002.684    2.2071385 
    6710    382.55279   -6947.7705   -6905.0961    472.67924    19991.002    2.2244145 
    6720    369.56844   -6946.3465   -6905.1205     765.4739     19980.51     2.245876 
    6730    372.03836   -6946.6416   -6905.1402    685.98379    19971.876    2.2663458 
    6740    384.57042   -6948.0608   -6905.1614    341.15427    19964.931    2.2826593 
    6750     381.2732   -6947.7323   -6905.2007    300.54686    19958.915    2.2956015 
    6760    373.17398   -6946.8833   -6905.2552    482.48928    19953.702    2.3069258 
    6770    372.68289   -6946.8859   -6905.3126    697.56655    19949.722    2.3181597 
    6780    372.64593   -6946.9342   -6905.3649    1033.3326    19947.612    2.3299474 
    6790    383.84961   -6948.2422   -6905.4232    968.83897    19948.151    2.3406112 
    6800    388.13842   -6948.8026   -6905.5052    750.30387    19951.274    2.3485711 
    6810    385.69985   -6948.6495   -6905.6241    616.75889    19956.485    2.3531971 
    6820    388.31403   -6949.1003   -6905.7833    390.32867     19963.41    2.3552037 
    6830    388.33107   -6949.3086   -6905.9897    255.42907    19971.526     2.356645 
    6840    378.68921   -6948.4807   -6906.2374    189.83303    19980.497    2.3593557 
    6850    372.36898   -6948.0455   -6906.5071    -131.4747    19990.071    2.3638442 
    6860    369.47757   -6947.9977   -6906.7819   -555.84298    19999.429    2.3693091 
    6870    362.84709   -6947.5257   -6907.0495   -929.62014    20007.443    2.3747834 
    6880    358.10172   -6947.2391   -6907.2923   -1022.5079     20013.15    2.3788868 
    6890    364.64441   -6948.1848   -6907.5081   -1130.1386    20016.171    2.3813407 
    6900     369.9589   -6948.9754   -6907.7059   -928.12422     20016.28    2.3848057 
    6910    366.14799   -6948.7342   -6907.8898   -405.83831    20013.945     2.391446 
    6920    364.64261   -6948.7277   -6908.0513    25.275924    20010.426    2.4005263 
    6930    371.56459   -6949.6443   -6908.1957      343.937    20006.896    2.4102533 
    6940    370.13105   -6949.6208   -6908.3322    641.49757    20004.219    2.4189638 
    6950    358.52687   -6948.4473   -6908.4531    1153.4813    20003.279     2.424045 
    6960    353.59513   -6947.9818   -6908.5377    1429.4067    20005.391    2.4236677 
    6970    362.13835    -6948.979   -6908.5819    983.07777    20011.251    2.4203216 
    6980    366.45907   -6949.4721    -6908.593    219.70999    20019.854     2.418555 
    6990    360.62482   -6948.8064   -6908.5782   -330.60037    20029.329     2.420325 
    7000    356.14997   -6948.2605   -6908.5314    -567.6919    20038.217    2.4244521 
    7010    361.46441   -6948.7671   -6908.4452   -773.56567    20045.779    2.4281732 
    7020    365.95567   -6949.1461   -6908.3232    -855.8142    20051.451    2.4282885 
    7030    361.85655   -6948.5345   -6908.1689   -729.23105    20054.997    2.4220349 
    7040    365.50851    -6948.748   -6907.9749   -887.83064    20056.559    2.4083575 
    7050    372.76981    -6949.315    -6907.732    -1045.009    20055.743    2.3904616 
    7060    367.77804   -6948.4692    -6907.443   -875.04512    20052.136    2.3740593 
    7070    361.46015   -6947.4175   -6907.0961   -415.15571    20046.138    2.3619489 
    7080    367.62421   -6947.6785   -6906.6694    8.8226387    20038.845    2.3530523 
    7090    379.15708   -6948.4729   -6906.1774    401.80931    20031.397    2.3451524 
    7100    387.44221    -6948.897   -6905.6772    794.91536    20024.878    2.3368498 
    7110    390.75753   -6948.8287   -6905.2391    967.24028    20020.318    2.3286619 
    7120    384.84047   -6947.8285    -6904.899     1011.186    20018.254    2.3214535 
    7130    376.05214   -6946.6014   -6904.6522    955.92297    20018.866    2.3143969 
    7140    377.46449    -6946.575   -6904.4683    737.34323    20022.056    2.3071293 
    7150    385.36552    -6947.318   -6904.3299    364.06207    20027.276    2.3006849 
    7160    387.20567    -6947.434   -6904.2407    272.06553    20033.672    2.2965497 
    7170    379.19865   -6946.4957   -6904.1955    707.34122    20041.093    2.2946041 
    7180    375.07151   -6946.0125   -6904.1727    1002.1315    20050.552    2.2924319 
    7190    379.92883    -6946.535   -6904.1534    901.11753     20062.87    2.2887521 
    7200     388.7595   -6947.5112   -6904.1445    443.22655    20077.818    2.2855923 
    7210    380.00768   -6946.5463   -6904.1559    274.37624     20094.38    2.2860523 
    7220    365.98032   -6945.0001   -6904.1744    132.53681    20112.054    2.2902703 
    7230    372.08907   -6945.6846   -6904.1775   -369.37965    20130.384    2.2956303 
    7240    385.01317   -6947.1194   -6904.1706   -926.96274    20148.078    2.3004512 
    7250    390.70411   -6947.7669   -6904.1833   -1268.5952    20163.655    2.3047635 
    7260    386.57236   -6947.3557    -6904.233   -1228.0581    20176.159    2.3090966 
    7270    374.59518   -6946.0953   -6904.3087   -885.41173    20185.619    2.3132429 
    7280    371.47165   -6945.8287   -6904.3905   -635.51331    20192.833    2.3155074 
    7290    377.75417   -6946.6116   -6904.4726   -562.63729    20198.411    2.3151341 
    7300    377.86618   -6946.7127   -6904.5611   -367.06122    20202.602    2.3134008 
    7310    373.32104   -6946.2979   -6904.6534   -203.38547    20205.858    2.3117226 
    7320    377.41537   -6946.8506   -6904.7494   -240.36257    20208.542    2.3108565 
    7330    373.91763   -6946.5614   -6904.8503   -39.916613    20210.686    2.3123854 
    7340    370.16263   -6946.2463   -6904.9541    266.52127    20212.799    2.3170495 
    7350    372.90769   -6946.6526   -6905.0542    133.77032    20215.575    2.3237754 
    7360    375.90325   -6947.0859   -6905.1533   -205.05672    20218.764    2.3306628 
    7370    380.51847   -6947.7058   -6905.2583   -667.30501    20221.449      2.33578 
    7380    390.02007   -6948.8976   -6905.3903   -1076.8654    20222.366    2.3394848 
    7390    386.40279   -6948.6671   -6905.5633   -1030.6687    20220.447    2.3453568 
    7400    384.80494   -6948.7045   -6905.7789   -745.53848    20215.674     2.356366 
    7410    378.67262   -6948.2671   -6906.0256   -228.01665    20208.776    2.3726947 
    7420    361.86497   -6946.6398   -6906.2732    309.08088    20201.094    2.3910264 
    7430    360.76672   -6946.7435   -6906.4995     411.1353    20193.974    2.4073523 
    7440    364.79457   -6947.3974    -6906.704    337.24392    20187.792    2.4207843 
    7450    364.70879   -6947.5722   -6906.8884    305.29158    20182.403    2.4318706 
    7460    366.99509   -6947.9967   -6907.0579     292.0923    20177.735    2.4415817 
    7470    369.20481   -6948.4032   -6907.2178    205.81092    20173.735    2.4519056 
    7480    369.59855   -6948.5948   -6907.3655    65.057949    20170.215     2.464521 
    7490    365.59303   -6948.2775    -6907.495   -116.03107    20166.808    2.4791597 
    7500      361.319   -6947.9037    -6907.598   -396.72386    20162.967    2.4937237 
    7510    364.73212   -6948.3626   -6907.6762   -688.59274    20157.953    2.5074631 
    7520    365.66045   -6948.5213   -6907.7313   -743.61591     20151.01    2.5212211 
    7530    363.16448   -6948.2734   -6907.7619    -495.0183    20141.961    2.5338812 
    7540    363.73129   -6948.3457    -6907.771   -79.353366    20131.401    2.5429809 
    7550    367.15508   -6948.7147    -6907.758    237.33635    20120.397    2.5476547 
    7560    373.74135    -6949.419   -6907.7276     212.9351    20109.747    2.5505185 
    7570    377.90183   -6949.8452   -6907.6897    134.74206    20099.458    2.5566947 
    7580    375.31171   -6949.5162   -6907.6496    30.037548    20089.337    2.5690904 
    7590    374.17294   -6949.3463   -6907.6068    34.375078    20079.167    2.5863746 
    7600    374.36079   -6949.3182   -6907.5577    316.99092    20068.991    2.6053387 
    7610    371.44608   -6948.9276   -6907.4922    669.82547    20059.508    2.6237359 
    7620    377.62457   -6949.5263   -6907.4017     824.8735    20051.635    2.6397511 
    7630     383.0411   -6950.0228    -6907.294    957.78662    20045.881    2.6525214 
    7640    379.93185   -6949.5687   -6907.1867    1021.4431    20042.626     2.662762 
    7650    371.79969   -6948.5551   -6907.0803    938.23961    20042.065    2.6724538 
    7660    359.58808   -6947.0669   -6906.9544    844.29628    20044.072    2.6826358 
    7670    367.19085   -6947.7452   -6906.7845    347.06159    20048.291    2.6923285 
    7680     380.1873   -6948.9664   -6906.5559   -124.39597    20053.512    2.7015037 
    7690    385.46678   -6949.3007   -6906.3013   -87.257371    20058.608    2.7103741 
    7700    380.46695     -6948.49   -6906.0483     142.5367    20063.584     2.719699 
    7710    378.69091   -6948.0437   -6905.8002    185.80232    20068.979    2.7295355 
    7720    389.67716   -6949.0259   -6905.5568   -185.86639    20074.841     2.738853 
    7730    394.30571   -6949.3217   -6905.3363   -479.98772    20080.285     2.747318 
    7740    389.93142   -6948.6523   -6905.1549   -295.71463    20084.632    2.7543201 
    7750    390.66097   -6948.5846   -6905.0058   -147.21614    20088.214    2.7586561 
    7760    401.11365   -6949.6368    -6904.892    -139.6021    20091.388    2.7609255 
    7770    401.47306   -6949.6207   -6904.8357    231.99319    20094.312    2.7634506 
    7780    393.42935   -6948.7368   -6904.8491    727.43102    20097.924    2.7663966 
    7790     393.7559   -6948.8449   -6904.9208    806.60428    20103.465    2.7676172 
    7800    396.62187    -6949.292   -6905.0482    655.53263    20111.211    2.7656904 
    7810     387.0556   -6948.4035   -6905.2269    699.73032    20120.905    2.7602051 
    7820    377.60708   -6947.5619   -6905.4393    739.66406    20132.638    2.7507278 
    7830    368.69092   -6946.7847   -6905.6566    550.39641    20146.477    2.7378289 
    7840    366.67328   -6946.7644   -6905.8614    215.82777     20161.95    2.7243496 
    7850    371.18891   -6947.4567     -6906.05   -44.780115    20178.223    2.7137432 
    7860    376.89775    -6948.275   -6906.2315   -475.20069    20194.505    2.7072359 
    7870    378.65305   -6948.6548   -6906.4154   -1020.0969     20209.63    2.7031835 
    7880    373.90549   -6948.3127    -6906.603   -1376.3726    20222.165    2.6985611 
    7890    369.11954   -6947.9626   -6906.7867   -1516.1469    20231.085     2.690903 
    7900    361.52539   -6947.2839   -6906.9552   -1305.6495    20236.008    2.6810313 
    7910    355.09088   -6946.7047   -6907.0938   -1055.7313    20237.395    2.6709721 
    7920    361.55468   -6947.5313   -6907.1993   -1010.6903    20235.838    2.6619638 
    7930    368.08872   -6948.3428   -6907.2819    -876.9264    20231.513     2.654984 
    7940    361.47184   -6947.6669   -6907.3441   -701.02513    20224.754    2.6487549 
    7950    361.31077   -6947.6819   -6907.3772   -809.42831    20215.946    2.6405362 
    7960    366.11371   -6948.2189   -6907.3783   -961.88414    20204.839    2.6300316 
    7970    361.22557   -6947.6472   -6907.3519   -541.68476     20191.16    2.6197681 
    7980    357.56013   -6947.1755   -6907.2891    292.42401    20176.022     2.612207 
    7990    363.76969   -6947.7626   -6907.1835    795.95938    20161.518    2.6073115 
    8000    368.51513   -6948.1502   -6907.0418     830.9075    20148.998    2.6026765 
    8010    370.40062   -6948.1906   -6906.8719    712.35694    20138.644    2.5960007 
    8020    377.14461   -6948.7441    -6906.673    721.48919    20130.213    2.5868975 
    8030     387.7899   -6949.7079   -6906.4493    984.49261    20123.761    2.5777043 
    8040    385.47045   -6949.2168    -6906.217    1493.3602    20120.024    2.5715202 
    8050    379.40097   -6948.3112   -6905.9884    1778.0869    20120.279    2.5689994 
    8060    378.43773   -6947.9666   -6905.7513    1526.6921     20125.26    2.5689227 
    8070    388.85432   -6948.8752    -6905.498    670.66617    20134.271    2.5695995 
    8080    387.69258   -6948.4826    -6905.235   -82.413633      20145.2    2.5705924 
    8090    372.83933   -6946.5612   -6904.9704   -423.47055    20156.079    2.5714892 
    8100    377.64161   -6946.8125    -6904.686   -775.94729     20165.88     2.570841 
    8110    392.69613   -6948.1803   -6904.3745   -1173.8073    20173.619    2.5678611 
    8120    393.63995   -6947.9847   -6904.0735   -1103.3267    20178.332     2.563814 
    8130    379.32351   -6946.1159   -6903.8018   -841.68838     20180.12    2.5606167 
    8140    382.93698   -6946.2604   -6903.5432     -1028.72    20179.492    2.5582832 
    8150    395.35465   -6947.3953   -6903.2929   -1060.5122    20176.099    2.5571095 
    8160    393.07274   -6946.9259   -6903.0781   -614.71639    20169.912    2.5575896 
    8170    384.90759   -6945.8405   -6902.9035   -115.88634    20162.034    2.5582447 
    8180    388.50168   -6946.0963   -6902.7584    62.002845    20153.715    2.5570728 
    8190    390.72942   -6946.2252   -6902.6388    185.56067      20145.5    2.5536716 
    8200    397.32463   -6946.8767   -6902.5545    165.48164    20137.696    2.5497986 
    8210    401.05774   -6947.2576    -6902.519    29.804278    20130.262    2.5492387 
    8220     388.7652   -6945.9035   -6902.5362     124.6195    20122.926    2.5539776 
    8230    382.67365   -6945.2779   -6902.5901     391.8591    20115.941    2.5618348 
    8240    387.42855   -6945.8889   -6902.6707    472.23185    20109.932    2.5695871 
    8250    395.57668   -6946.9266   -6902.7994    508.53466    20105.159    2.5755539 
    8260    391.18872   -6946.6333   -6902.9956     761.1522    20101.811    2.5799752 
    8270    386.50658   -6946.3795   -6903.2641    673.45494    20100.428    2.5829141 
    8280    391.40846   -6947.2791   -6903.6169    77.098868    20100.741     2.584613 
    8290    386.93482   -6947.2268   -6904.0636   -286.29253    20101.337    2.5866635 
    8300    380.32771   -6947.0024   -6904.5763   -183.44946    20101.281      2.59003 
    8310    384.41335   -6948.0043   -6905.1225    104.68462    20100.767    2.5942052 
    8320    379.53959   -6947.9922    -6905.654    437.38691    20100.558    2.5979054 
    8330    372.26393   -6947.6338   -6906.1072    328.07552    20101.423     2.599511 
    8340    374.00259   -6948.1781   -6906.4576   -325.02945    20103.042    2.5986668 
    8350    377.93757    -6948.879   -6906.7195   -874.47859    20103.829    2.5978729 
    8360    378.63607   -6949.1608   -6906.9234   -893.33865    20102.375    2.6003051 
    8370    367.84116   -6948.1085   -6907.0753   -536.16113    20098.583    2.6062612 
    8380    371.07745   -6948.5749   -6907.1806    -390.1655    20093.284    2.6132442 
    8390    378.78791   -6949.5154   -6907.2611   -348.77262    20086.904    2.6205325 
    8400    378.69552   -6949.5804   -6907.3364   -170.81213    20079.623    2.6278312 
    8410    377.05636   -6949.4767   -6907.4155   -48.279265     20071.86    2.6337333 
    8420    369.09545   -6948.6642    -6907.491    200.73406    20064.032    2.6373522 
    8430    364.85739   -6948.2507   -6907.5503    366.00017    20056.721     2.638077 
    8440    368.65202   -6948.7121   -6907.5884    366.84952    20050.342    2.6363542 
    8450    373.15639   -6949.2409   -6907.6148    369.21094    20044.952    2.6352019 
    8460    364.35161   -6948.2742   -6907.6303    360.93301    20040.534     2.637715 
    8470    362.77193   -6948.0951   -6907.6274    117.33604     20037.02    2.6428913 
    8480    371.55956   -6949.0487   -6907.6007   -107.51467    20033.824    2.6480836 
    8490    382.21538   -6950.2034   -6907.5667    8.7142988    20030.398    2.6508561 
    8500    382.86453   -6950.2537   -6907.5446    450.97954    20027.073    2.6493309 
    8510    379.56329   -6949.8791   -6907.5382    1019.5832     20025.01    2.6446464 
    8520    383.45193   -6950.3236   -6907.5489    1361.7569    20025.627    2.6411289 
    8530    374.44999    -6949.349   -6907.5786      1696.53     20029.91    2.6423096 
    8540    364.60578   -6948.2879   -6907.6156    1908.3121    20038.749    2.6467264 
    8550    371.82126   -6949.1246   -6907.6474    1691.1202    20052.657     2.651957 
    8560    372.51205   -6949.2226   -6907.6683    1378.7823    20071.174    2.6570997 
    8570    372.68532   -6949.2552   -6907.6816    805.61059    20093.438    2.6597379 
[...]
   22890    376.11004   -6950.8766    -6908.921    175.30283    20213.825    3.6523351 
   22900    366.51467   -6949.8848   -6908.9995   -24.558101    20230.517    3.6689812 
   22910     363.2634   -6949.5885   -6909.0659   -497.56601    20247.144     3.684389 
   22920    364.29412   -6949.7463   -6909.1088   -1007.8261    20262.472    3.6974257 
   22930    376.36865   -6951.1216   -6909.1371   -1466.4631     20275.08     3.706006 
   22940    386.21902   -6952.2585   -6909.1751   -1612.1787    20283.771    3.7098627 
   22950    380.87262   -6951.7326   -6909.2457   -1500.6111      20288.1    3.7110506 
   22960    370.83559   -6950.7089   -6909.3416   -1358.6422    20288.323    3.7112363 
   22970    374.55531   -6951.2372    -6909.455    -1349.811    20284.776    3.7118921 
   22980    375.00741   -6951.4188   -6909.5861   -1114.8674    20277.564    3.7145027 
   22990    369.96589   -6951.0028   -6909.7326   -653.35624    20267.328    3.7172771 
   23000     375.1466   -6951.7467   -6909.8985   -470.03863    20255.179    3.7174302 
   23010    376.43659   -6952.0909   -6910.0988   -303.50869    20241.725    3.7166537 
   23020    369.85295   -6951.5873   -6910.3296   -67.040748    20227.443    3.7174354 
   23030    377.79439   -6952.7284   -6910.5849    94.149759     20212.94    3.7194664 
   23040    384.58093   -6953.7762   -6910.8757    316.42519    20198.673    3.7222478 
   23050    375.31932   -6953.0626   -6911.1951    813.31491    20185.333     3.724889 
   23060    366.76743   -6952.4285   -6911.5151    1113.7743    20174.163    3.7260187 
   23070    368.16094    -6952.889   -6911.8201     1047.207    20165.924     3.725314 
   23080    367.64547   -6953.1185   -6912.1071    1047.3474    20160.529    3.7236911 
   23090    359.37824   -6952.4469   -6912.3577    1281.4573    20158.044    3.7220169 
   23100    361.01531   -6952.8365   -6912.5647    1088.6574     20158.93    3.7215226 
   23110     364.4754   -6953.3927   -6912.7349    757.35893    20162.759    3.7246657 
   23120    358.43044   -6952.8524   -6912.8689    510.27687    20168.694    3.7308701 
   23130    360.64459   -6953.1945   -6912.9641    118.36527    20176.026    3.7357276 
   23140    367.49167   -6954.0223   -6913.0281   -376.24694    20183.693     3.736973 
   23150      363.849    -6953.658   -6913.0701   -430.17945    20190.489    3.7360176 
   23160    364.53961   -6953.7588   -6913.0939   -193.07876    20196.208    3.7348104 
   23170    367.80022   -6954.1285   -6913.0998    155.95631    20201.464     3.735532 
   23180    363.87421   -6953.6796   -6913.0889    404.84227    20207.155    3.7390159 
   23190    358.78598   -6953.0724   -6913.0492    447.51329    20213.957    3.7431341 
   23200    362.47977   -6953.4056   -6912.9705    198.00638    20221.952    3.7449399 
   23210    364.58777   -6953.5246   -6912.8543   -36.758208    20230.542    3.7442753 
   23220    357.75215   -6952.6157   -6912.7079     23.62109    20239.156    3.7438378 
   23230    352.11843    -6951.805   -6912.5257     12.71998    20247.849     3.745179 
   23240    359.04548   -6952.3459   -6912.2938   -356.44522    20256.539    3.7461397 
   23250    370.47003   -6953.3417   -6912.0152   -794.16584    20264.273    3.7450116 
   23260    375.47554   -6953.6027   -6911.7179   -951.75486    20269.915    3.7433186 
   23270    374.83143   -6953.2392   -6911.4262   -832.85534    20273.035    3.7433083 
   23280    372.19246   -6952.6668   -6911.1482   -598.09142    20273.905    3.7447131 
   23290    367.29112   -6951.8569    -6910.885   -211.84747    20273.178    3.7452831 
   23300    368.54168   -6951.7457   -6910.6343   -97.307133    20271.782    3.7444671 
   23310    371.21447   -6951.8078   -6910.3983    -200.7371     20270.07    3.7433589 
   23320    367.08794   -6951.1337   -6910.1845   -293.48632    20267.819    3.7432779 
   23330    362.68688    -6950.448   -6909.9897   -432.88202    20264.749    3.7447875 
   23340    362.65989    -6950.258   -6909.8028   -509.69297    20260.493    3.7482406 
   23350     369.8584   -6950.8814   -6909.6231    -407.1924    20254.856    3.7533657 
   23360    372.59765   -6951.0236   -6909.4597   -109.67223    20248.112     3.758675 
   23370    368.12949   -6950.3822   -6909.3168    99.292779    20241.002    3.7618077 
   23380    367.76573     -6950.21   -6909.1852    229.64142    20234.117    3.7614015 
   23390    370.84116    -6950.427   -6909.0591    413.92417     20227.84    3.7573054 
   23400    372.41938   -6950.4857   -6908.9417     725.0916    20222.711    3.7496459 
   23410    369.13672   -6950.0108    -6908.833     967.5165    20219.539     3.739236 
   23420    368.90304   -6949.8804   -6908.7287    824.83139    20218.901    3.7281785 
   23430    375.54098   -6950.5158   -6908.6236    463.29081    20220.492    3.7190653 
   23440    383.55096   -6951.3154   -6908.5297    61.475285    20223.357    3.7129719 
   23450    376.68366    -6950.474   -6908.4543   -85.959918    20226.499    3.7094418 
   23460    375.89568   -6950.3261   -6908.3944   -270.70564    20229.404    3.7065872 
   23470    375.37678   -6950.2114   -6908.3376   -172.91445    20231.672    3.7023283 
   23480    378.05825   -6950.4564   -6908.2835    58.438323     20233.54     3.695686 
   23490    379.38288    -6950.554   -6908.2333    240.67086    20235.572    3.6879239 
   23500    375.67363   -6950.0976   -6908.1906    523.81371    20238.326    3.6805304 
   23510    381.07782   -6950.6639   -6908.1541    457.12284    20242.474    3.6745748 
   23520     390.8881    -6951.733   -6908.1288   -20.930663    20247.838    3.6706044 
   23530    395.50884   -6952.2549   -6908.1353   -691.59061     20253.17     3.668422 
   23540    393.78685   -6952.1166   -6908.1891   -1210.2452    20256.698    3.6668944 
   23550    390.23657   -6951.8225   -6908.2911   -1541.2815    20256.979    3.6642047 
   23560     394.1477   -6952.4142   -6908.4465   -1827.5753    20253.006    3.6614276 
   23570    382.43624   -6951.3137   -6908.6524   -1444.3241    20244.123    3.6621854 
   23580    367.62746   -6949.8816   -6908.8722   -995.44625    20231.188    3.6661694 
   23590    374.57081   -6950.8776   -6909.0936    -1225.008    20215.201    3.6702235 
   23600      374.389   -6951.0866    -6909.323   -1224.6888    20195.757    3.6734406 
   23610    366.25319   -6950.4047   -6909.5486   -756.15328    20172.892    3.6757638 
   23620    365.59289   -6950.5335   -6909.7511   -201.33235     20147.78    3.6760317 
   23630     378.0021    -6952.103   -6909.9363    262.03379     20121.88    3.6741292 
   23640    388.39692   -6953.4569   -6910.1306     806.3646    20096.502    3.6724771 
   23650    381.82372   -6952.9308   -6910.3378    1592.0185    20073.179    3.6723779 
   23660    378.17211   -6952.7364   -6910.5507    2116.9721    20053.938    3.6728878 
   23670    378.80149   -6953.0305   -6910.7746     2092.456    20040.138    3.6742526 
   23680    376.38231   -6952.9947   -6911.0087    1998.7645    20031.859     3.677247 
   23690    369.76791   -6952.4864   -6911.2382    2069.1234    20028.948    3.6811981 
   23700    365.51875   -6952.2194   -6911.4453    1983.4854    20031.567      3.68529 
   23710    372.25488   -6953.1566    -6911.631    1670.3904    20039.515    3.6894937 
   23720    374.81716   -6953.6126   -6911.8012     1512.312    20052.102    3.6931406 
   23730    371.01102   -6953.3461   -6911.9593    1518.7355     20068.94    3.6938242 
   23740    361.54783   -6952.4271   -6912.0959     1498.041    20090.061    3.6904628 
   23750    353.02884    -6951.574   -6912.1931    1210.1536     20115.42    3.6846224 
   23760    351.16114   -6951.4055    -6912.233    417.77087     20144.23    3.6780142 
   23770    355.09412   -6951.8184   -6912.2071   -644.79301    20174.429    3.6725583 
   23780    358.98935   -6952.1731   -6912.1273   -1542.8595    20203.205    3.6698334 
   23790    359.72416   -6952.1452   -6912.0174   -1883.9751    20228.172    3.6699014 
   23800    360.86005   -6952.1528   -6911.8983   -1727.6694      20248.3    3.6709403 
   23810    358.90475   -6951.8111   -6911.7748   -1283.8703    20263.921    3.6708822 
   23820    364.21786   -6952.2755   -6911.6464   -951.10548     20276.09    3.6686337 
   23830    367.94342   -6952.5611   -6911.5165   -687.37238    20285.724    3.6646924 
   23840    358.68076   -6951.4015   -6911.3901   -538.43239    20293.519    3.6607197 
   23850    359.64462   -6951.3786   -6911.2597   -721.31806    20299.797    3.6589996 
   23860    371.86591   -6952.6051   -6911.1229   -1058.7634    20304.086    3.6624679 
   23870    372.85881   -6952.5901   -6910.9971   -916.36248    20305.617    3.6723368 
   23880    361.62133   -6951.2242   -6910.8848   -363.09242    20304.732    3.6865884 
   23890    362.81665   -6951.2417    -6910.769    -28.41277    20302.765    3.7011599 
   23900    368.61764   -6951.7617   -6910.6418   -8.5053822    20300.632    3.7143844 
   23910    370.23747    -6951.811   -6910.5104   -62.316716    20298.464    3.7259508 
   23920    370.12051     -6951.66   -6910.3725   -211.62303    20296.098    3.7347512 
   23930     365.8613   -6951.0342   -6910.2219   -325.46103     20293.16    3.7406021 
   23940    369.49325   -6951.2802   -6910.0627   -498.28306    20289.282      3.74342 
   23950     378.0082    -6952.077   -6909.9096   -597.98751    20283.999    3.7442595 
   23960    372.50996    -6951.326    -6909.772   -261.47695    20277.169    3.7459506 
   23970    366.37819   -6950.5137   -6909.6437    -88.27753    20269.542    3.7503363 
   23980    363.82796    -6950.092   -6909.5065   -72.597104    20261.611    3.7574191 
   23990    360.85884   -6949.6055   -6909.3512    127.35928    20253.513    3.7648045 
   24000    358.77509   -6949.1915   -6909.1696    403.72797    20245.754     3.769382 
   24010    370.72985   -6950.3158   -6908.9603    442.30605    20239.015    3.7701306 
   24020    384.62172   -6951.6485   -6908.7433    381.58028    20233.459    3.7692811 
   24030    381.49628   -6951.1064   -6908.5499     639.3892    20229.018    3.7698551 
   24040    379.19705   -6950.6871   -6908.3871    966.82439    20226.347    3.7728356 
   24050    384.59641   -6951.1507   -6908.2483    819.30386    20226.213    3.7777958 
   24060    389.21676   -6951.5584   -6908.1407    390.80181    20228.273    3.7832741 
   24070    387.79044   -6951.3283   -6908.0697    129.32815    20231.467    3.7875479 
   24080    379.59109    -6950.371    -6908.027    201.68685    20235.124    3.7887993 
   24090    378.12515   -6950.1792   -6907.9988    236.25437    20239.348    3.7856416 
   24100    382.01511   -6950.5957   -6907.9813    193.82076    20244.244    3.7799401 
   24110    377.17701    -6950.046   -6907.9713    323.95155    20249.761    3.7752666 
   24120    384.83387   -6950.9032   -6907.9744    322.14485    20256.172    3.7716594 
   24130    392.28941   -6951.7613   -6908.0009    149.65926    20263.489    3.7669075 
   24140    388.69577   -6951.4284   -6908.0688    12.577613    20271.298    3.7591717 
   24150    380.58617   -6950.6261   -6908.1711    -352.1832    20279.132    3.7469947 
   24160    378.81435   -6950.5515   -6908.2942   -759.31016    20286.042    3.7308217 
   24170    377.36779   -6950.5275   -6908.4316   -981.90138    20290.952    3.7141125 
   24180     377.7896   -6950.7318   -6908.5888   -1149.8929     20293.18    3.7001664 
   24190    375.56916   -6950.6602   -6908.7649   -1054.8517    20292.328    3.6907493 
   24200     373.5691   -6950.6269   -6908.9547   -938.69273    20288.561    3.6846929 
   24210    371.07773    -6950.548   -6909.1538   -926.08985    20282.169    3.6774698 
   24220    361.97127   -6949.7355   -6909.3571   -808.58944    20273.229    3.6649497 
   24230     356.9292   -6949.3644   -6909.5484   -575.57057    20262.071    3.6474682 
   24240    363.55487    -6950.271   -6909.7159   -414.23077    20249.285    3.6284408 
   24250    370.64299   -6951.2134   -6909.8676   -117.34927    20235.392    3.6111123 
   24260    368.94681   -6951.1795   -6910.0229    375.25757    20221.245    3.5977669 
   24270    368.34639   -6951.2792   -6910.1896      936.966    20208.199    3.5887189 
   24280    372.79947   -6951.9666   -6910.3803     1260.779    20197.698    3.5827464 
   24290    367.41271    -6951.588   -6910.6026    1490.2441    20190.653    3.5790341 
   24300    366.70399   -6951.7658   -6910.8594    1495.1349    20187.657    3.5764286 
   24310    369.39352   -6952.3602   -6911.1538    1399.4977    20188.733    3.5739683 
   24320     369.3496   -6952.6838   -6911.4823    1312.3412    20193.604    3.5713262 
   24330    366.30722   -6952.6945   -6911.8324    1378.7563    20202.077     3.569307 
   24340    360.38747   -6952.3834   -6912.1816    1331.6212    20214.233    3.5690233 
   24350    355.48489   -6952.1591   -6912.5042    1022.9085    20229.916    3.5696916 
   24360     350.9909   -6951.9257   -6912.7721    471.42822    20248.296    3.5680151 
   24370    359.06042   -6953.0337     -6912.98   -356.28317     20267.84     3.561179 
   24380    369.94668   -6954.4156   -6913.1475   -1173.1867     20286.32    3.5503344 
   24390    364.54878   -6953.9603   -6913.2943   -1405.5129    20301.651      3.53944 
   24400    356.07511   -6953.1338   -6913.4131   -1339.0922    20313.108    3.5309603 
   24410    354.37959   -6953.0252   -6913.4936     -1171.18    20320.829    3.5257667 
   24420    347.31238   -6952.2666   -6913.5234   -888.69258    20325.311    3.5230231 
   24430    349.59833   -6952.4948   -6913.4966   -824.68371     20327.25    3.5205507 
   24440    354.94059   -6953.0143   -6913.4201   -868.06371    20326.871    3.5174663 
   24450     358.9842   -6953.3565   -6913.3113   -805.20578    20324.148     3.512638 
   24460    367.07188   -6954.1265    -6913.179   -781.79128    20319.199    3.5057377 
   24470    370.80795   -6954.3885   -6913.0244   -587.90475    20312.173    3.4992247 
   24480    374.15252   -6954.5914   -6912.8541   -283.18161    20303.611    3.4945236 
   24490    375.85086   -6954.6038   -6912.6771    150.28911    20294.393    3.4923932 
   24500    368.63923   -6953.6209   -6912.4987    687.33824    20285.717    3.4939341 
   24510    356.88491   -6952.1218   -6912.3107    1112.9625    20278.977    3.4976253 
   24520    351.50575   -6951.3103   -6912.0993     1261.888    20275.289    3.5000679 
   24530    359.23817   -6951.9328   -6911.8592    987.36367    20274.993    3.5008605 
   24540     367.8608   -6952.6397   -6911.6043    760.75792    20277.443    3.5035404 
   24550    369.59915   -6952.5914   -6911.3621    709.30513     20282.02    3.5113831 
   24560     365.6996     -6951.94   -6911.1457    544.58116    20288.464    3.5234875 
   24570    364.83419   -6951.6489   -6910.9511    286.40471    20296.332    3.5341351 
   24580    365.76466    -6951.576   -6910.7744    149.05861     20304.95    3.5391415 
   24590    359.00891   -6950.6604   -6910.6124    255.43318    20313.965     3.539793 
   24600    360.94051   -6950.7217   -6910.4582    246.85376    20323.595    3.5383988 
   24610    370.41745   -6951.6309   -6910.3103    128.37764    20333.812    3.5371285 
   24620    371.25849   -6951.5922   -6910.1778    191.98427    20344.365    3.5383461 
   24630    373.90672   -6951.7745   -6910.0646    305.14166    20355.385     3.541348 
   24640    378.88747   -6952.2356   -6909.9701     431.5449    20367.158    3.5427031 
   24650    372.24975   -6951.4189   -6909.8938    584.48432    20380.068    3.5410617 
   24660    367.86936   -6950.8583   -6909.8219    187.19762    20394.373    3.5368981 
   24670    371.59897   -6951.1919   -6909.7395   -580.39567    20409.008     3.532717 
   24680    368.26343    -6950.727   -6909.6466   -1120.4547    20422.006    3.5316267 
   24690    363.75585   -6950.1238   -6909.5463   -1500.0552    20431.828    3.5328088 
   24700    359.28975   -6949.5108   -6909.4314   -1597.6142    20437.484    3.5326587 
   24710    357.93613   -6949.2224   -6909.2941   -1546.7695    20438.694    3.5278938 
   24720    360.67189   -6949.3611   -6909.1276   -1591.5037    20435.553    3.5173624 
   24730    369.64961   -6950.1739   -6908.9389   -1811.7716     20427.94    3.5024002 
   24740    374.51252   -6950.5213   -6908.7439     -1913.31    20415.361    3.4860989 
   24750    372.48298   -6950.1085   -6908.5575   -1826.3676    20397.582    3.4707804 
   24760    371.62992   -6949.8338   -6908.3779   -1467.8515    20374.938     3.457415 
   24770    376.42311    -6950.187   -6908.1965   -916.39996    20348.461    3.4471774 
   24780    378.14437   -6950.1947   -6908.0121   -341.17529     20319.68    3.4397027 
   24790    380.80956   -6950.3072   -6907.8274    205.88887    20290.218    3.4314522 
   24800    390.83661    -6951.252   -6907.6536    501.35464    20261.526    3.4195291 
   24810    391.75275   -6951.2125   -6907.5119    916.66937    20234.525    3.4049859 
   24820    386.73115   -6950.5485   -6907.4081    1435.9834    20210.344     3.388663 
   24830    385.84009   -6950.3746   -6907.3335    1485.0245    20190.219    3.3699897 
   24840    388.26899   -6950.5988   -6907.2868    1210.8686    20174.261    3.3518056 
   24850    384.69645    -6950.185   -6907.2716    1228.7592    20161.828     3.338931 
   24860     375.0193   -6949.1121   -6907.2781    1571.6491    20152.922    3.3323429 
   24870    376.07745   -6949.2453   -6907.2933    1956.2194    20148.383    3.3303627 
   24880     385.0718   -6950.2798   -6907.3244    2041.1549    20149.108    3.3304122 
   24890    385.49689   -6950.3897   -6907.3869    2042.7213    20155.356    3.3296102 
   24900    384.37967    -6950.367   -6907.4888    1719.2246    20167.025    3.3268002 
   24910    377.48734   -6949.7227   -6907.6134    1023.9621    20183.174    3.3224727 
   24920    374.67246    -6949.535   -6907.7397    322.09278     20201.98    3.3159173 
   24930      383.219   -6950.6181   -6907.8694   -170.17981    20221.593    3.3066036 
   24940    387.42887   -6951.2441   -6908.0259    -402.5681    20240.671    3.2964955 
   24950    384.62094   -6951.1312   -6908.2262   -377.44947    20258.573    3.2882396 
   24960    384.79439   -6951.3967   -6908.4723   -330.23709    20275.297    3.2832932 
   24970    382.07346   -6951.3847   -6908.7638    -197.7691    20291.012    3.2823287 
   24980    366.27871   -6949.9379    -6909.079   -95.310378     20306.05    3.2839209 
   24990     355.0756   -6948.9876   -6909.3784   -219.89715    20320.662    3.2859987 
   25000    356.29374   -6949.3848   -6909.6397   -702.28967    20334.446    3.2887859 
Loop time of 15488.9 on 16 procs for 20000 steps with 864 atoms

Performance: 0.112 ns/day, 215.123 hours/ns, 1.291 timesteps/s
97.1% CPU use with 16 MPI tasks x 1 OpenMP threads

MPI task timing breakdown:
Section |  min time  |  avg time  |  max time  |%varavg| %total
---------------------------------------------------------------
Pair    | 7769.6     | 12560      | 15338      |1754.1 | 81.09
Bond    | 0.0017304  | 0.0050912  | 0.022473   |   6.9 |  0.00
Neigh   | 0.17869    | 0.27815    | 0.39366    |  11.8 |  0.00
Comm    | 37.561     | 2132       | 6290.3     |4160.0 | 13.76
Output  | 1.2063     | 1.2325     | 1.6137     |   8.9 |  0.01
Modify  | 1.6846     | 794.82     | 1583.7     |2369.2 |  5.13
Other   |            | 0.1069     |            |       |  0.00

Nlocal:        54.0000 ave          73 max          37 min
Histogram: 2 2 2 1 1 2 3 1 1 1
Nghost:        487.750 ave         532 max         416 min
Histogram: 2 1 0 1 1 1 2 2 3 3
Neighs:         0.00000 ave           0 max           0 min
Histogram: 16 0 0 0 0 0 0 0 0 0
FullNghs:      2376.38 ave        4010 max        1231 min
Histogram: 3 2 2 0 2 3 1 1 1 1

Total # of neighbors = 38022
Ave neighs/atom = 44.006944
Ave special neighs/atom = 0.0000000
Neighbor list builds = 2000
Dangerous builds = 2000
Total wall time: 5:22:25
