LAMMPS (2 Aug 2023)
OMP_NUM_THREADS environment is not set. Defaulting to 1 thread. (src/comm.cpp:98)
  using 1 OpenMP thread(s) per MPI task
read_restart    ../structure.ready
Reading restart file ...
  restart file = 2 Aug 2023, LAMMPS = 2 Aug 2023
  restoring atom style full from restart
  orthogonal box = (-0.19987933 -0.17334996 -8.6459149) to (25.130492 25.103962 83.437752)
  1 by 1 by 1 MPI processor grid
  pair style chgnet/gpu stores no restart info
  1536 atoms
Finding 1-2 1-3 1-4 neighbors ...
  special bond factors lj:    0        0        0       
  special bond factors coul:  0        0        0       
     0 = max # of 1-2 neighbors
     0 = max # of 1-3 neighbors
     0 = max # of 1-4 neighbors
     1 = max # of special neighbors
  special bonds CPU = 0.000 seconds
  read_restart CPU = 0.003 seconds

pair_style      chgnet/gpu /nfs/turbo/coe-venkvis/ziqiw-turbo/LAMMPSs/lammps-ASC/potentials/CHGNET
pair_coeff      * * 0.3.0 Cl K Li

neighbor        0.3 bin
neigh_modify    delay 10

timestep	    0.001
compute	        msd all msd
Resetting peratom fix info from restart file:
  fix style: STORE/ATOM, fix ID: msd_COMPUTE_STORE
thermo_style	custom step temp pe etotal press vol c_msd[4]
thermo	        10
dump	        1 all custom 10 xyz-mix.dump type id x y z
dump	        2 all custom 10 force-mix.dump type id fx fy fz

fix             3 gLiquid npt temp 1500 1000.0 $(100.0*dt) z 1.01325 1.01325 $(1000.0*dt) couple none
fix             3 gLiquid npt temp 1500 1000.0 0.10000000000000000555 z 1.01325 1.01325 $(1000.0*dt) couple none
fix             3 gLiquid npt temp 1500 1000.0 0.10000000000000000555 z 1.01325 1.01325 1 couple none
run             10000
All restart file peratom fix info was re-assigned
Neighbor list info ...
  update: every = 1 steps, delay = 10 steps, check = yes
  max neighbors/atom: 2000, page size: 100000
  master list distance cutoff = 6.3
  ghost atom cutoff = 6.3
  binsize = 3.15, bins = 9 9 30
  1 neighbor lists, perpetual/occasional/extra = 1 0 0
  (1) pair chgnet/gpu, perpetual
      attributes: full, newton on
      pair build: full/bin
      stencil: full/bin/3d
      bin: standard
Per MPI rank memory allocation (min/avg/max) = 6.538 | 6.538 | 6.538 Mbytes
   Step          Temp          PotEng         TotEng         Press          Volume        c_msd[4]   
     40000   1475.1074     -5374.5374     -5081.8549      3094.8119      58959.67       119.19679    
     40010   1463.266      -5372.1292     -5081.7962      2934.5572      58960.045      119.30063    
     40020   1468.9177     -5373.0641     -5081.6098      2808.7507      58960.97       119.39762    
     40030   1491.7431     -5377.3026     -5081.3194      2752.5703      58962.147      119.48646    
     40040   1518.1925     -5382.1989     -5080.9677      2843.4136      58963.359      119.5841     
     40050   1553.0446     -5388.8569     -5080.7106      2730.4413      58964.517      119.70692    
     40060   1540.3071     -5386.2279     -5080.6089      2880.9623      58965.525      119.84629    
     40070   1516.3142     -5381.547      -5080.6886      3085.6207      58966.512      119.97079    
     40080   1491.7976     -5376.8438     -5080.8497      3315.8649      58967.708      120.09477    
     40090   1491.5994     -5376.9836     -5081.029       3507.0357      58969.288      120.2374     
     40100   1476.1638     -5374.0833     -5081.1912      3800.5351      58971.055      120.38388    
     40110   1477.4851     -5374.47       -5081.3158      3844.1766      58972.996      120.51754    
     40120   1492.9871     -5377.6157     -5081.3857      3592.1635      58975.366      120.64833    
     40130   1487.6728     -5376.6346     -5081.4591      3456.716       58978.338      120.79641    
     40140   1479.9217     -5375.1526     -5081.5149      3313.7045      58982.084      120.9501     
     40150   1481.3744     -5375.4664     -5081.5405      3047.0633      58986.531      121.0833     
     40160   1482.9936     -5375.7722     -5081.525       2854.2351      58991.365      121.17475    
     40170   1491.7918     -5377.4678     -5081.4749      2863.0251      58996.419      121.22802    
     40180   1486.1726     -5376.2812     -5081.4033      3180.5938      59001.714      121.28943    
     40190   1476.7218     -5374.2982     -5081.2955      3460.3783      59007.475      121.40701    
     40200   1478.2776     -5374.4286     -5081.1171      3382.6563      59013.737      121.57265    
     40210   1476.9356     -5373.9089     -5080.8638      3316.6538      59020.282      121.74414    
     40220   1476.7724     -5373.5167     -5080.5039      3264.3661      59027.171      121.90664    
     40230   1501.8687     -5378.0607     -5080.0684      2967.1033      59034.594      122.08089    
     40240   1520.4224     -5381.2822     -5079.6087      2606.2592      59042.462      122.26027    
     40250   1519.9722     -5380.801      -5079.2168      2394.7308      59050.516      122.42927    
     40260   1507.9534     -5378.1097     -5078.9102      2350.1184      59058.421      122.59298    
     40270   1522.8219     -5380.8398     -5078.6902      2267.9601      59066.105      122.75269    
     40280   1513.314      -5378.8473     -5078.5841      2518.4547      59073.645      122.88628    
     40290   1480.0255     -5372.2185     -5078.5602      3059.7487      59081.408      122.98649    
     40300   1474.2461     -5371.0466     -5078.5351      3360.7906      59090.007      123.05966    
     40310   1475.1114     -5371.1422     -5078.459       3389.6435      59099.964      123.12564    
     40320   1491.1796     -5374.2235     -5078.3521      3056.0502      59111.363      123.19887    
     40330   1491.822      -5374.2506     -5078.2518      2854.5905      59124.149      123.29541    
     40340   1494.6129     -5374.7355     -5078.1829      2749.2484      59138.317      123.42047    
     40350   1516.1653     -5379.0033     -5078.1744      2619.3856      59153.735      123.57935    
     40360   1524.5513     -5380.7725     -5078.2796      2752.6417      59170.337      123.77203    
     40370   1525.9017     -5381.3342     -5078.5735      2922.4606      59188.124      123.97831    
     40380   1516.8331     -5380.0067     -5079.0453      3007.6569      59206.737      124.17706    
     40390   1512.6771     -5379.8459     -5079.7091      2960.5014      59225.487      124.35082    
     40400   1476.3554     -5373.4241     -5080.494       3138.3584      59243.79       124.49297    
     40410   1475.3692     -5374.0609     -5081.3265      3210.5535      59261.642      124.61785    
     40420   1476.4159     -5375.1354     -5082.1933      3101.827       59279.106      124.75577    
     40430   1464.4739     -5373.653      -5083.0804      3044.9428      59296.347      124.93119    
     40440   1481.7028     -5377.9629     -5083.9718      2669.2642      59313.59       125.13517    
     40450   1502.3861     -5383.0195     -5084.9246      2325.2427      59330.5        125.3428     
     40460   1490.101      -5381.6309     -5085.9735      2411.6983      59346.482      125.54735    
     40470   1483.0487     -5381.3672     -5087.1091      2555.2091      59361.379      125.76491    
     40480   1464.3939     -5378.8206     -5088.2638      2610.8785      59375.433      125.99977    
     40490   1455.1189     -5378.0826     -5089.3662      2357.0394      59388.936      126.25462    
     40500   1460.4096     -5380.1667     -5090.4006      1820.3503      59401.631      126.49182    
     40510   1458.547      -5380.7615     -5091.3649      1540.7413      59412.987      126.68141    
     40520   1459.7479     -5381.8953     -5092.2604      1554.3364      59422.703      126.8291     
     40530   1458.1054     -5382.39       -5093.081       1742.4829      59430.882      126.98787    
     40540   1462.9628     -5384.1365     -5093.8637      1736.5536      59437.969      127.20476    
     40550   1432.0506     -5378.6847     -5094.5453      1862.694       59444.008      127.41579    
     40560   1434.766      -5379.7712     -5095.0931      1586.7861      59449.057      127.59396    
     40570   1436.2963     -5380.4927     -5095.5109      1345.0662      59452.906      127.75319    
     40580   1411.8007     -5375.892      -5095.7705      1404.4886      59455.418      127.91441    
     40590   1414.9174     -5376.5541     -5095.8142      1357.121       59456.887      128.08545    
     40600   1415.949      -5376.59       -5095.6454      1361.9138      59457.511      128.25497    
     40610   1413.3285     -5375.7008     -5095.2762      1550.1533      59457.299      128.42967    
     40620   1388.638      -5370.2032     -5094.6776      2036.8566      59456.351      128.62931    
     40630   1383.2173     -5368.2092     -5093.7591      2251.1617      59454.889      128.85459    
     40640   1411.92       -5372.655      -5092.5099      2051.1046      59452.905      129.0748     
     40650   1432.1452     -5375.1178     -5090.9597      1971.3521      59450.392      129.27754    
     40660   1457.5757     -5378.4434     -5089.2395      2009.9327      59447.477      129.45177    
     40670   1459.4381     -5377.0525     -5087.4791      2218.7639      59444.037      129.58796    
     40680   1478.5381     -5379.1791     -5085.816       2385.4527      59439.752      129.68597    
     40690   1503.0327     -5382.5654     -5084.3422      2601.5415      59434.325      129.7609     
     40700   1487.0221     -5378.2148     -5083.1684      3200.7784      59427.837      129.8459     
     40710   1483.3544     -5376.6376     -5082.3188      3545.413       59420.838      129.95802    
     40720   1496.2969     -5378.5562     -5081.6694      3693.2513      59413.668      130.10579    
     40730   1502.3254     -5379.3065     -5081.2236      3809.8774      59406.315      130.25503    
     40740   1515.1029     -5381.6481     -5081.03        3661.5617      59399.029      130.37739    
     40750   1499.3172     -5378.5063     -5081.0203      3470.5741      59391.913      130.48698    
     40760   1493.2618     -5377.4498     -5081.1653      3237.1905      59384.749      130.59435    
     40770   1485.1372     -5376.063      -5081.3905      3199.0193      59377.263      130.71551    
     40780   1484.3495     -5376.2021     -5081.686       3227.8415      59369.461      130.83352    
     40790   1482.1449     -5376.0941     -5082.0153      3508.2351      59361.818      130.94262    
     40800   1488.2959     -5377.6904     -5082.3912      3848.7858      59354.879      131.05416    
     40810   1487.9522     -5378.0625     -5082.8315      3950.3338      59348.729      131.18147    
     40820   1494.0777     -5379.7932     -5083.3468      3761.2606      59343.242      131.32425    
     40830   1503.6026     -5382.3047     -5083.9684      3339.1659      59338.164      131.45183    
     40840   1501.1593     -5382.5665     -5084.715       2906.4328      59333.166      131.54057    
     40850   1496.7257     -5382.572      -5085.6002      2546.8202      59327.805      131.60793    
     40860   1479.4643     -5380.1257     -5086.5788      2514.7979      59321.598      131.6578     
     40870   1455.3974     -5376.3413     -5087.5696      2742.8558      59314.6        131.71198    
     40880   1441.1626     -5374.4509     -5088.5036      3022.2464      59307.559      131.79827    
     40890   1447.8386     -5376.5933     -5089.3213      3045.7567      59301.085      131.91607    
     40900   1471.4755     -5382.059      -5090.0971      2740.8003      59295.084      132.03509    
     40910   1478.1008     -5384.1764     -5090.9         2642.3013      59288.994      132.12486    
     40920   1461.7752     -5381.7675     -5091.7303      2575.7744      59282.633      132.21156    
     40930   1460.1688     -5382.2937     -5092.5753      2495.8905      59276.008      132.31987    
     40940   1445.1544     -5380.1169     -5093.3776      2460.1044      59268.908      132.44366    
     40950   1420.3564     -5375.9066     -5094.0876      2616.4673      59261.144      132.56817    
     40960   1428.3011     -5378.0735     -5094.6781      2640.6043      59252.61       132.68162    
     40970   1441.086      -5381.0859     -5095.1538      2716.2554      59243.174      132.77512    
     40980   1447.5839     -5382.7991     -5095.5777      2899.2428      59232.889      132.84622    
     40990   1455.9242     -5384.863      -5095.9868      2909.3436      59222.001      132.92298    
     41000   1447.5879     -5383.6084     -5096.3862      2912.9978      59210.51       133.02261    
     41010   1437.8015     -5382.0483     -5096.7679      2809.7065      59198.214      133.13805    
     41020   1432.5072     -5381.335      -5097.105       2842.2625      59185.138      133.2597     
     41030   1419.4499     -5378.9934     -5097.3542      3198.0133      59171.709      133.37501    
     41040   1430.4065     -5381.3485     -5097.5354      3373.1765      59158.432      133.47855    
     41050   1412.1109     -5377.7992     -5097.6162      3598.4198      59145.27       133.56409    
     41060   1415.0686     -5378.3617     -5097.5918      3542.1762      59132.299      133.64279    
     41070   1405.3264     -5376.2578     -5097.4209      3416.0784      59119.492      133.72931    
     41080   1420.7748     -5379.015      -5097.113       2944.5307      59106.761      133.82378    
     41090   1421.9556     -5378.7942     -5096.6578      2680.0595      59093.667      133.93002    
     41100   1428.2761     -5379.4556     -5096.0651      2634.539       59079.868      134.04726    
     41110   1452.8482     -5383.6095     -5095.3436      2501.3823      59065.481      134.15767    
     41120   1440.5356     -5380.3359     -5094.513       2776.3361      59050.784      134.24097    
     41130   1427.5831     -5376.8093     -5093.5564      3067.4746      59036.163      134.29319    
     41140   1438.6315     -5377.8365     -5092.3915      3154.6231      59022.213      134.34881    
     41150   1455.4228     -5379.7603     -5090.9835      3297.5772      59009.474      134.43885    
     41160   1458.2809     -5378.7301     -5089.3863      3382.2199      58997.958      134.55296    
     41170   1441.6944     -5373.6669     -5087.6141      3565.9289      58987.394      134.6574     
     41180   1443.6346     -5372.1094     -5085.6716      3694.9825      58977.641      134.74832    
     41190   1418.5024     -5365.0291     -5083.5779      4236.3208      58968.806      134.84992    
     41200   1439.3333     -5367.0341     -5081.4497      4375.4723      58961.405      134.9861     
     41210   1468.5138     -5370.7485     -5079.3744      4146.8832      58955.787      135.15175    
     41220   1512.5495     -5377.7036     -5077.5921      3876.7158      58951.933      135.32929    
     41230   1525.0559     -5378.8737     -5076.2807      3943.7383      58949.853      135.50164    
     41240   1524.4254     -5377.968      -5075.5002      4007.5917      58949.73       135.65691    
     41250   1538.6915     -5380.4883     -5075.1899      3848.8231      58951.813      135.8085     
     41260   1548.3302     -5382.5237     -5075.3128      3617.1527      58956.099      135.96736    
     41270   1510.6181     -5375.5261     -5075.7979      3673.0316      58962.424      136.13025    
     41280   1502.5122     -5374.6322     -5076.5123      3486.3354      58970.917      136.29402    
     41290   1494.8707     -5373.9664     -5077.3627      3238.5592      58981.466      136.46927    
     41300   1493.7703     -5374.7014     -5078.316       2992.8203      58993.577      136.66444    
     41310   1503.4851     -5377.6981     -5079.3851      2931.6233      59006.604      136.88309    
     41320   1487.2489     -5375.6492     -5080.5577      3111.5753      59020.275      137.11049    
     41330   1491.8151     -5377.7944     -5081.797       3113.9334      59034.814      137.32674    
     41340   1487.2099     -5378.1837     -5083.1         3094.2484      59050.44       137.54394    
     41350   1461.6172     -5374.4293     -5084.4235      3403.7301      59067.214      137.76075    
     41360   1438.6644     -5371.1074     -5085.6558      3620.8696      59085.176      137.97888    
     41370   1442.1313     -5372.9099     -5086.7704      3662.3548      59104.352      138.22884    
     41380   1447.9127     -5375.0819     -5087.7953      3860.3071      59124.709      138.52068    
     41390   1466.1125     -5379.6848     -5088.7871      3884.0108      59146.252      138.83322    
     41400   1480.6289     -5383.5886     -5089.8106      3622.4365      59168.752      139.14816    
     41410   1484.9615     -5385.5621     -5090.9245      3414.1279      59191.873      139.46668    
     41420   1481.4246     -5386.0913     -5092.1554      3488.9284      59215.416      139.77812    
     41430   1474.1244     -5385.9423     -5093.4549      3594.8172      59239.323      140.07815    
     41440   1474.6866     -5387.3954     -5094.7964      3406.1935      59263.768      140.37508    
     41450   1468.0367     -5387.4917     -5096.2122      3190.7803      59288.788      140.68697    
     41460   1422.7324     -5379.8503     -5097.5599      3339.6397      59314.312      141.00555    
     41470   1436.293      -5383.7812     -5098.8001      2829.4218      59340.668      141.28819    
     41480   1405.6636     -5378.7744     -5099.8706      2633.2854      59367.416      141.52653    
     41490   1371.4895     -5372.8748     -5100.7516      2688.6513      59394.058      141.7442     
     41500   1362.1259     -5371.6113     -5101.346       2667.5686      59420.502      141.95842    
     41510   1391.9509     -5377.8787     -5101.6957      2240.1112      59446.571      142.17554    
     41520   1408.1638     -5381.2797     -5101.8798      1995.2858      59471.696      142.40561    
     41530   1415.0454     -5382.7793     -5102.014       1845.4021      59495.671      142.64435    
     41540   1412.0934     -5382.2845     -5102.105       2012.4547      59518.326      142.86294    
     41550   1397.156      -5379.3684     -5102.1526      2328.1372      59539.506      143.05406    
     41560   1385.5862     -5377.0118     -5102.0917      2536.6635      59559.068      143.25568    
     41570   1373.1171     -5374.3634     -5101.9173      2692.9975      59577.242      143.49467    
     41580   1372.3938     -5373.8518     -5101.5492      2709.5567      59594.233      143.747      
     41590   1419.1609     -5382.6145     -5101.0327      2290.3878      59610.19       143.99955    
     41600   1433.7148     -5384.929      -5100.4594      2047.1043      59625.276      144.25046    
     41610   1425.4965     -5382.754      -5099.9151      1962.0867      59639.554      144.49464    
     41620   1426.9391     -5382.52       -5099.3949      1975.5348      59652.952      144.71508    
     41630   1415.8758     -5379.7998     -5098.8698      2034.0059      59665.314      144.89802    
     41640   1432.4641     -5382.5621     -5098.3407      1759.7683      59676.436      145.048      
     41650   1427.6037     -5381.0724     -5097.8154      1648.5132      59686.255      145.18467    
     41660   1425.571      -5380.1759     -5097.3222      1656.5511      59694.943      145.3074     
     41670   1422.0675     -5378.9971     -5096.8385      1769.7329      59702.634      145.40782    
     41680   1415.0145     -5377.0854     -5096.3263      1816.3944      59709.522      145.47986    
     41690   1429.4819     -5379.4358     -5095.8061      1741.5768      59715.793      145.53547    
     41700   1424.7873     -5377.9651     -5095.2669      1943.0302      59721.289      145.63276    
     41710   1400.6092     -5372.6305     -5094.7296      2389.3282      59725.84       145.78445    
     41720   1421.9767     -5376.2468     -5094.1063      2496.1379      59729.938      145.98041    
     41730   1446.386      -5380.385      -5093.4013      2470.2921      59733.761      146.20287    
     41740   1458.5325     -5382.1443     -5092.7506      2304.9052      59737.385      146.43473    
     41750   1474.1062     -5384.6942     -5092.2104      1955.3793      59740.864      146.67627    
     41760   1465.8131     -5382.6877     -5091.8494      1862.2718      59743.841      146.90358    
     41770   1441.4033     -5377.6443     -5091.6492      2134.5116      59745.971      147.11355    
     41780   1447.4121     -5378.7664     -5091.5791      2123.3777      59747.405      147.30248    
     41790   1457.6117     -5380.8629     -5091.6519      2043.2415      59748.278      147.46193    
     41800   1449.7123     -5379.5559     -5091.9122      2104.2619      59748.673      147.59864    
     41810   1449.1786     -5379.9379     -5092.4001      2115.9626      59748.976      147.73672    
     41820   1460.5417     -5382.954      -5093.1616      2004.9508      59749.514      147.88785    
     41830   1453.7457     -5382.6954     -5094.2515      1945.0624      59750.497      148.04155    
     41840   1430.4905     -5379.5065     -5095.6767      1957.8157      59752.129      148.19002    
     41850   1390.238      -5373.134      -5097.2909      2068.739       59754.36       148.33602    
     41860   1366.3568     -5370.0176     -5098.9128      2060.4711      59756.938      148.47073    
     41870   1385.6055     -5375.3833     -5100.4593      1886.5046      59759.502      148.5945     
     41880   1395.8594     -5378.885      -5101.9265      1747.9327      59761.525      148.71493    
     41890   1394.5876     -5380.0291     -5103.3229      1648.6807      59762.462      148.81399    
     41900   1378.5295     -5378.1119     -5104.5919      1605.3927      59761.871      148.89031    
     41910   1362.6326     -5376.0447     -5105.6789      1691.0052      59759.614      148.97681    
     41920   1365.7437     -5377.5374     -5106.5542      1807.9044      59755.737      149.08896    
     41930   1371.1693     -5379.2911     -5107.2315      1982.2981      59750.235      149.2072     
     41940   1378.9989     -5381.3712     -5107.7581      2206.7094      59743.402      149.30047    
     41950   1412.4293     -5388.4292     -5108.183       2087.9212      59735.417      149.36974    
     41960   1433.6314     -5393.0911     -5108.6381      2085.1399      59725.989      149.43328    
     41970   1432.7039     -5393.4412     -5109.1722      2130.4656      59715.215      149.51329    
     41980   1431.0727     -5393.7671     -5109.8218      2141.2436      59703.086      149.58963    
     41990   1400.95       -5388.5028     -5110.5343      2300.4021      59689.337      149.64468    
     42000   1384.9134     -5386.0155     -5111.2288      2317.6584      59673.889      149.69134    
     42010   1390.5316     -5387.7543     -5111.8529      2179.3033      59656.732      149.71661    
     42020   1402.5626     -5390.733      -5112.4445      2073.8869      59637.992      149.70144    
     42030   1387.639      -5388.3281     -5113.0007      2239.1026      59617.924      149.65477    
     42040   1380.0093     -5387.335      -5113.5214      2451.7131      59597.026      149.57712    
     42050   1353.2461     -5382.4358     -5113.9324      2540.7989      59575.814      149.46005    
     42060   1339.8345     -5380.0126     -5114.1702      2501.6103      59554.759      149.34113    
     42070   1333.0911     -5378.7052     -5114.2008      2358.2029      59534.178      149.25059    
     42080   1317.4969     -5375.3826     -5113.9723      2235.699       59514.221      149.21255    
     42090   1339.8878     -5379.345      -5113.492       1896.9234      59494.609      149.21485    
     42100   1375.7423     -5385.7603     -5112.7933      1591.586       59474.642      149.2242     
     42110   1384.2089     -5386.6176     -5111.9707      1652.0136      59453.72       149.2653     
     42120   1380.0142     -5384.8923     -5111.0778      1928.0802      59431.59       149.35019    
     42130   1394.5368     -5386.7988     -5110.1028      1930.8737      59408.439      149.46503    
     42140   1413.5766     -5389.5568     -5109.0829      1965.5055      59384.445      149.59083    
     42150   1388.4223     -5383.5535     -5108.0706      2388.2388      59359.588      149.71679    
     42160   1386.5872     -5382.1846     -5107.0658      2639.1774      59334.034      149.83769    
     42170   1411.1288     -5385.9653     -5105.9772      2681.4192      59308.123      149.9286     
     42180   1427.0697     -5388.0656     -5104.9145      2596.8858      59282.109      149.98595    
     42190   1435.5512     -5388.7969     -5103.963       2604.2487      59255.872      150.03382    
     42200   1426.3576     -5386.1653     -5103.1555      2718.2932      59229.246      150.08509    
     42210   1410.4422     -5382.3127     -5102.4608      2632.5618      59202.191      150.13346    
     42220   1441.2345     -5387.8132     -5101.8517      2119.8026      59174.698      150.16776    
     42230   1444.8124     -5388.0461     -5101.3747      1740.1949      59146.71       150.19965    
     42240   1440.4685     -5386.9069     -5101.0973      1817.1883      59118.279      150.22629    
     42250   1420.7213     -5382.8818     -5100.9904      2053.6861      59089.61       150.24251    
     42260   1414.6077     -5381.6942     -5101.0158      2033.6739      59060.871      150.24109    
     42270   1427.1435     -5384.3536     -5101.1879      1768.3935      59032.05       150.20888    
     42280   1410.1981     -5381.373      -5101.5696      1773.6503      59002.901      150.13777    
     42290   1413.6937     -5382.7207     -5102.2236      1785.5599      58973.261      150.0296     
     42300   1408.9038     -5382.7789     -5103.2322      2078.3827      58943.026      149.92032    
     42310   1407.7696     -5384.0149     -5104.6932      2463.1697      58912.473      149.84972    
     42320   1396.1918     -5383.6161     -5106.5916      2863.672       58882.148      149.83599    
     42330   1408.137      -5388.286      -5108.8915      2919.9858      58852.39       149.8858     
     42340   1404.4203     -5390.0771     -5111.42        2900.9828      58823.101      149.97731    
     42350   1415.5658     -5394.8364     -5113.9679      2691.9057      58793.943      150.05145    
     42360   1433.2705     -5400.7881     -5116.4067      2324.4726      58764.419      150.06587    
     42370   1423.679      -5401.1316     -5118.6533      2247.8527      58734.293      150.0255     
     42380   1405.7455     -5399.5382     -5120.6182      2225.4267      58703.513      149.93705    
     42390   1388.859      -5397.8793     -5122.3098      2336.594       58671.781      149.81061    
     42400   1356.5406     -5392.8552     -5123.6981      2808.4323      58639.014      149.67186    
     42410   1360.3606     -5394.7185     -5124.8035      3014.8677      58605.412      149.53458    
     42420   1359.8376     -5395.5194     -5125.7082      3228.7362      58571.038      149.39402    
     42430   1351.7177     -5394.6482     -5126.448       3417.8559      58536.14       149.23107    
     42440   1358.4905     -5396.5822     -5127.0382      3363.6195      58500.84       149.06545    
     42450   1387.1852     -5402.8158     -5127.5784      2922.5591      58464.994      148.93218    
     42460   1383.1925     -5402.5558     -5128.1106      2791.7707      58428.395      148.84406    
     42470   1366.762      -5399.8447     -5128.6596      2985.3554      58391.066      148.81593    
     42480   1343.7527     -5395.7648     -5129.145       3087.7612      58353.091      148.80678    
     42490   1348.3789     -5397.0652     -5129.5275      2901.0845      58314.548      148.77782    
     42500   1356.5079     -5398.9611     -5129.8105      2640.3368      58275.386      148.73512    
     42510   1361.4627     -5400.163      -5130.0293      2565.6892      58235.481      148.69183    
     42520   1367.0828     -5401.4425     -5130.1937      2611.9032      58194.846      148.65744    
     42530   1383.2085     -5404.7875     -5130.3391      2762.013       58153.756      148.62661    
     42540   1389.0112     -5406.1025     -5130.5028      2978.3613      58112.71       148.58354    
     42550   1403.0172     -5409.1176     -5130.7388      3040.9004      58072.18       148.54203    
     42560   1418.8167     -5412.6387     -5131.1251      2918.0163      58032.218      148.51973    
     42570   1400.9975     -5409.6628     -5131.6849      3102.0965      57992.521      148.53226    
     42580   1389.4155     -5408.068      -5132.3881      3252.6706      57952.966      148.58337    
     42590   1390.2808     -5409.0311     -5133.1795      3406.1027      57913.572      148.65905    
     42600   1395.0984     -5410.8831     -5134.0756      3421.358       57874.462      148.75644    
     42610   1378.9694     -5408.6906     -5135.0833      3553.349       57835.637      148.86171    
     42620   1365.1573     -5406.9624     -5136.0956      3659.6354      57797.264      148.94406    
     42630   1356.5941     -5406.2487     -5137.081       3726.0948      57759.612      149.014      
     42640   1337.3963     -5403.3875     -5138.0289      3907.8285      57722.832      149.12368    
     42650   1325.087      -5401.7472     -5138.8309      4028.2162      57687.138      149.25244    
     42660   1314.4802     -5400.2805     -5139.4688      4083.2667      57652.626      149.35982    
     42670   1302.9136     -5398.426      -5139.9093      4055.1167      57618.869      149.46343    
     42680   1312.5026     -5400.5544     -5140.1351      4045.341       57585.39       149.56519    
     42690   1317.5036     -5401.5828     -5140.1712      4227.6055      57551.772      149.6532     
     42700   1318.0683     -5401.5388     -5140.0152      4483.8998      57518.055      149.73322    
     42710   1334.168      -5404.3978     -5139.6798      4551.6854      57484.916      149.81414    
     42720   1337.8325     -5404.6293     -5139.1841      4578.1832      57452.985      149.91187    
     42730   1357.058      -5407.853      -5138.5933      4288.9607      57422.616      150.00218    
     42740   1354.9103     -5406.7668     -5137.9332      4082.3384      57393.725      150.05687    
     42750   1340.6515     -5403.2073     -5137.2028      4051.3313      57366.382      150.10318    
     42760   1350.4933     -5404.3323     -5136.3751      4099.5708      57340.933      150.16108    
     42770   1360.6803     -5405.4331     -5135.4546      4027.4514      57317.712      150.22508    
     42780   1367.9406     -5405.9282     -5134.5092      3882.7825      57296.331      150.2674     
     42790   1363.3621     -5404.0627     -5133.5522      3768.3383      57276.108      150.29004    
     42800   1373.5634     -5405.1368     -5132.6022      3726.0514      57256.735      150.29189    
     42810   1375.1445     -5404.5011     -5131.6527      4064.6313      57238.16       150.26131    
     42820   1376.0811     -5403.7764     -5130.7422      4518.2735      57220.867      150.19883    
     42830   1381.5119     -5403.9877     -5129.8759      4612.8299      57205.677      150.1236     
     42840   1385.8486     -5404.0664     -5129.0942      4526.7503      57192.913      150.05869    
     42850   1380.896      -5402.3782     -5128.3886      4403.7766      57182.476      150.02423    
     42860   1392.1783     -5404.002      -5127.7738      4111.5599      57174.396      150.02305    
     42870   1402.8012     -5405.6224     -5127.2866      4126.951       57168.607      150.03879    
     42880   1384.2767     -5401.6029     -5126.9426      4358.93        57165.205      150.0714     
     42890   1390.6448     -5402.6521     -5126.7283      4226.0183      57164.188      150.11764    
     42900   1406.091      -5405.6019     -5126.6133      3960.4173      57165.155      150.17886    
     42910   1421.2438     -5408.7158     -5126.7207      3761.7162      57167.702      150.25565    
     42920   1410.0002     -5406.8657     -5127.1015      3870.6496      57171.579      150.34756    
     42930   1393.6602     -5404.2891     -5127.7669      3942.2027      57176.54       150.45998    
     42940   1396.5089     -5405.8059     -5128.7185      3842.6763      57182.496      150.59204    
     42950   1397.8697     -5407.3561     -5129.9987      3829.8601      57189.377      150.74009    
     42960   1417.656      -5413.0283     -5131.7451      3903.4594      57196.915      150.9161     
     42970   1419.8879     -5415.7145     -5133.9884      3850.7408      57204.9        151.12847    
     42980   1423.5182     -5419.1147     -5136.6684      3365.4487      57213.239      151.35879    
     42990   1406.5239     -5418.5662     -5139.4917      3148.0631      57221.551      151.59003    
     43000   1384.4406     -5416.7677     -5142.0749      3355.8732      57229.602      151.8145     
     43010   1359.7956     -5413.9395     -5144.1365      3674.6936      57237.668      152.02269    
     43020   1342.7501     -5412.0612     -5145.6403      3833.467       57246.02       152.22494    
     43030   1328.9673     -5410.3821     -5146.6959      3794.5361      57254.604      152.4457     
     43040   1315.4746     -5408.4199     -5147.4109      3825.0545      57263.161      152.70541    
     43050   1302.044      -5406.2117     -5147.8675      4005.8626      57271.55       152.99192    
     43060   1294.7568     -5405.0149     -5148.1166      4116.2664      57279.84       153.26416    
     43070   1305.3727     -5407.1558     -5148.1511      4047.7007      57288.235      153.50993    
     43080   1328.5739     -5411.6561     -5148.048       3883.5135      57296.748      153.74147    
     43090   1315.3861     -5408.8495     -5147.8581      4114.6875      57305.221      153.96271    
     43100   1312.0982     -5407.9226     -5147.5835      4265.9579      57313.973      154.17849    
     43110   1330.7157     -5411.2295     -5147.1964      4318.3711      57323.43       154.39624    
     43120   1333.4208     -5411.3159     -5146.7461      4373.1216      57333.863      154.61057    
     43130   1327.1885     -5409.5889     -5146.2557      4439.0332      57345.516      154.79373    
     43140   1327.1119     -5409.015      -5145.697       4114.1519      57358.427      154.96816    
     43150   1343.5303     -5411.6598     -5145.0841      3612.0395      57372.257      155.18121    
     43160   1326.0442     -5407.5428     -5144.4367      3383.268       57386.532      155.42742    
     43170   1310.1267     -5403.6881     -5143.7402      3329.0006      57401.124      155.67183    
     43180   1303.9911     -5401.6644     -5142.9339      3301.6734      57416.14       155.8932     
     43190   1313.9592     -5402.6975     -5141.9892      3323.0546      57431.613      156.11691    
     43200   1322.0034     -5403.2457     -5140.9413      3403.3241      57447.563      156.36997    
     43210   1325.0408     -5402.7374     -5139.8303      3326.0347      57464.274      156.63024    
     43220   1349.9584     -5406.542      -5138.6909      2768.4927      57481.732      156.88839    
     43230   1355.6262     -5406.5574     -5137.5817      2416.9445      57498.983      157.13254    
     43240   1327.0191     -5399.8638     -5136.5642      2644.9621      57515.142      157.33389    
     43250   1324.0886     -5398.2891     -5135.5709      2875.8908      57530.204      157.49794    
     43260   1359.2123     -5404.2678     -5134.5806      2880.7045      57544.343      157.65733    
     43270   1388.6216     -5409.2032     -5133.6808      2935.1868      57557.779      157.83269    
     43280   1396.1318     -5410.0104     -5132.9978      3227.6892      57570.773      158.02939    
     43290   1383.2927     -5407.0389     -5132.5739      3541.8706      57583.692      158.24503    
     43300   1377.7704     -5405.718      -5132.3486      3592.7325      57596.959      158.47286    
     43310   1365.1662     -5403.1637     -5132.2952      3559.0298      57610.834      158.71824    
     43320   1347.2742     -5399.6777     -5132.3592      3620.9132      57625.383      158.96895    
     43330   1348.8278     -5400.111      -5132.4842      3515.0342      57640.398      159.20246    
     43340   1359.6093     -5402.447      -5132.6811      3284.2021      57655.629      159.40202    
     43350   1356.1839     -5402.0555     -5132.9692      3151.2586      57670.902      159.58029    
     43360   1338.8569     -5398.9991     -5133.3508      3341.524       57686.06       159.75496    
     43370   1324.9587     -5396.6682     -5133.7774      3606.5581      57701.276      159.91851    
     43380   1336.7622     -5399.451      -5134.2183      3689.4959      57717.171      160.07331    
     43390   1341.5983     -5400.884      -5134.6917      3737.8805      57734.154      160.23813    
     43400   1344.6029     -5402.0405     -5135.2521      3738.62        57752.168      160.42303    
     43410   1356.6928     -5405.0775     -5135.8902      3533.8115      57771.128      160.60981    
     43420   1366.4096     -5407.8116     -5136.6964      3414.8503      57790.875      160.77296    
     43430   1363.864      -5408.2972     -5137.6871      3343.0292      57811.316      160.9137     
     43440   1359.6239     -5408.6462     -5138.8774      3248.534       57832.441      161.0365     
     43450   1354.7399     -5409.0135     -5140.2137      2962.1902      57854.146      161.15208    
     43460   1370.2951     -5413.6014     -5141.7153      2447.9199      57876.095      161.25339    
     43470   1335.1318     -5408.2229     -5143.3136      2431.4584      57897.883      161.36663    
     43480   1319.2913     -5406.6284     -5144.8621      2568.9215      57919.521      161.51721    
     43490   1311.3668     -5406.4318     -5146.2378      2692.9173      57940.743      161.68921    
     43500   1317.2728     -5408.7905     -5147.4247      2650.1409      57960.954      161.85787    
     43510   1324.0722     -5411.1453     -5148.4304      2610.1151      57979.636      162.02483    
     43520   1318.224      -5410.8417     -5149.2872      2771.9928      57996.459      162.19773    
     43530   1312.315      -5410.3729     -5149.9908      2968.2948      58011.404      162.36468    
     43540   1313.9901     -5411.2657     -5150.5513      3158.5998      58024.742      162.51164    
     43550   1329.4003     -5414.8        -5151.028       3106.4078      58036.931      162.64207    
     43560   1305.4841     -5410.4524     -5151.4256      3116.1245      58048.351      162.79011    
     43570   1302.5165     -5410.1646     -5151.7266      2836.12        58059.121      162.97591    
     43580   1310.5169     -5411.9579     -5151.9326      2492.0689      58068.95       163.17118    
     43590   1318.6529     -5413.715      -5152.0753      2107.4766      58077.799      163.33284    
     43600   1335.5045     -5417.1892     -5152.206       1752.8563      58085.582      163.47485    
     43610   1335.0844     -5417.2756     -5152.3758      1814.462       58091.924      163.62113    
     43620   1321.0015     -5414.7008     -5152.5952      2094.766       58096.644      163.76498    
     43630   1309.6996     -5412.6559     -5152.7927      2327.1608      58099.883      163.89567    
     43640   1315.9782     -5414.0885     -5152.9796      2331.8925      58101.839      164.02612    
     43650   1304.387      -5411.9421     -5153.1331      2354.6834      58102.582      164.15707    
     43660   1287.5909     -5408.71       -5153.2335      2505.4154      58102.481      164.27722    
     43670   1284.9032     -5408.1683     -5153.2251      2586.4845      58102.207      164.39391    
     43680   1296.2591     -5410.307      -5153.1106      2674.6485      58102.159      164.50544    
     43690   1293.9537     -5409.6427     -5152.9038      2821.7045      58102.4        164.5979     
     43700   1328.219      -5416.1851     -5152.6474      2539.4989      58102.972      164.64394    
     43710   1330.5188     -5416.4041     -5152.4101      2504.6824      58103.704      164.64778    
     43720   1302.2162     -5410.5912     -5152.2128      2868.768       58104.531      164.66774    
     43730   1287.5256     -5407.4282     -5151.9647      3005.8852      58105.54       164.7523     
     43740   1292.6037     -5408.0907     -5151.6196      2853.2774      58106.767      164.90488    
     43750   1310.4869     -5411.1921     -5151.1728      2575.8978      58108.074      165.09714    
     43760   1328.2579     -5414.2115     -5150.6662      2301.1655      58109.31       165.31496    
     43770   1328.7966     -5413.8322     -5150.1799      2184.2389      58109.993      165.55181    
     43780   1297.6035     -5407.1477     -5149.6846      2540.4162      58109.898      165.80423    
     43790   1273.2416     -5401.7428     -5149.1134      3055.5928      58109.27       166.06266    
     43800   1260.6602     -5398.4539     -5148.3208      3446.8256      58108.521      166.30567    
     43810   1282.6255     -5401.7289     -5147.2376      3480.4638      58108.149      166.52284    
     43820   1300.7989     -5403.9521     -5145.855       3468.1953      58108.324      166.72841    
     43830   1326.9354     -5407.5399     -5144.2569      3122.4308      58109.217      166.93682    
     43840   1332.6657     -5406.9939     -5142.5739      2900.6573      58110.655      167.16768    
     43850   1307.6947     -5400.3787     -5140.9133      2973.7532      58112.538      167.42089    
     43860   1309.7886     -5399.1665     -5139.2857      2918.3383      58114.867      167.67166    
     43870   1333.8041     -5402.365      -5137.7192      2877.0406      58117.126      167.9091     
     43880   1346.5407     -5403.5138     -5136.3408      2829.32        58118.683      168.1399     
     43890   1347.4173     -5402.5789     -5135.232       2815.6618      58119.339      168.36743    
     43900   1367.7889     -5405.814      -5134.4251      2627.5285      58119.277      168.58801    
     43910   1390.9069     -5409.9214     -5133.9455      2388.9276      58118.667      168.79559    
     43920   1405.2051     -5412.6694     -5133.8566      2336.6889      58117.721      168.99314    
     43930   1369.9069     -5405.9528     -5134.1436      2879.1312      58116.94       169.1945     
     43940   1326.1953     -5397.7577     -5134.6215      3320.4647      58117.245      169.41003    
     43950   1332.1575     -5399.4529     -5135.1338      3129.1728      58119.231      169.62164    
     43960   1356.9739     -5404.9508     -5135.7078      2684.5643      58122.589      169.81307    
     43970   1370.9519     -5408.4272     -5136.4108      2333.0154      58126.47       170.00839    
     43980   1355.0591     -5406.1238     -5137.2607      2217.1032      58130          170.23355    
     43990   1330.7998     -5402.2244     -5138.1746      2426.8536      58132.539      170.45108    
     44000   1317.2333     -5400.4395     -5139.0815      2529.7778      58133.757      170.61831    
     44010   1308.8667     -5399.632      -5139.9341      2580.7409      58133.581      170.74914    
     44020   1300.0492     -5398.6534     -5140.7051      2843.043       58131.816      170.85692    
     44030   1300.3546     -5399.3749     -5141.3659      3073.4475      58128.463      170.94859    
     44040   1320.6191     -5404.0096     -5141.9799      2981.7204      58123.94       171.02268    
     44050   1321.8879     -5404.8743     -5142.5928      2912.3073      58118.615      171.06427    
     44060   1338.7593     -5408.8846     -5143.2556      2486.1279      58112.756      171.06282    
     44070   1336.6582     -5409.2058     -5143.9937      2499.4324      58106.16       171.04129    
     44080   1337.9627     -5410.3081     -5144.8371      2729.7332      58098.78       171.03823    
     44090   1329.4039     -5409.5358     -5145.763       3106.9704      58090.962      171.0542     
     44100   1308.3926     -5406.3025     -5146.6987      3518.8649      58083.315      171.07059    
     44110   1298.4288     -5405.2273     -5147.6004      3661.4264      58076.556      171.10597    
     44120   1318.6        -5410.0887     -5148.4596      3301.2529      58070.996      171.15702    
     44130   1345.6088     -5416.348      -5149.36        2923.2929      58066.14       171.24475    
     44140   1335.8307     -5415.397      -5150.349       2854.752       58061.354      171.38781    
     44150   1338.8029     -5417.0684     -5151.4307      2693.5733      58056.616      171.57625    
     44160   1333.7714     -5417.2181     -5152.5788      2577.6397      58051.832      171.76091    
     44170   1313.2062     -5414.3046     -5153.7456      2552.6462      58046.595      171.91029    
     44180   1309.9105     -5414.7887     -5154.8837      2411.5488      58040.703      172.01987    
     44190   1298.8146     -5413.6351     -5155.9317      2309.3087      58034.342      172.11958    
     44200   1271.6572     -5409.189      -5156.874       2542.9324      58027.727      172.23388    
     44210   1227.5596     -5401.1543     -5157.5889      2989.3372      58021.144      172.37787    
     44220   1239.8119     -5404.0371     -5158.0407      2991.7339      58014.948      172.55618    
     44230   1265.3955     -5409.3501     -5158.2775      2749.81        58008.862      172.73406    
     44240   1297.9898     -5415.9672     -5158.4274      2432.3503      58002.373      172.87193    
     44250   1328.6088     -5422.2213     -5158.6063      2301.9432      57995.159      172.94812    
     44260   1345.8967     -5425.9819     -5158.9367      2460.0917      57987.06       172.97514    
     44270   1337.7942     -5424.9056     -5159.4681      2733.7313      57978.045      172.99255    
     44280   1330.5552     -5424.1783     -5160.1771      2947.5789      57968.191      173.01298    
     44290   1311.3203     -5421.2036     -5161.0189      3102.0388      57957.713      173.02644    
     44300   1275.6473     -5414.9971     -5161.8904      3309.2548      57947.237      173.01359    
     44310   1251.8637     -5411.0585     -5162.6708      3451.1752      57937.727      172.97962    
     44320   1261.0517     -5413.5293     -5163.3186      3204.5386      57929.971      172.94467    
     44330   1284.3666     -5418.7028     -5163.866       2702.033       57923.904      172.93488    
     44340   1272.6267     -5416.8864     -5164.379       2487.6454      57918.696      172.95397    
     44350   1253.8589     -5413.6249     -5164.8413      2270.5619      57913.681      172.97445    
     44360   1250.8126     -5413.3572     -5165.178       2035.6105      57908.392      173.00229    
     44370   1254.0457     -5414.2306     -5165.41        2038.0974      57902.408      173.05772    
     44380   1256.6093     -5414.859      -5165.5297      2106.7024      57895.612      173.14897    
     44390   1257.8355     -5415.1333     -5165.5607      2215.4207      57888.055      173.2613     
     44400   1243.3815     -5412.1985     -5165.4938      2431.1791      57879.893      173.37248    
     44410   1247.4037     -5412.821      -5165.3183      2503.7388      57871.336      173.46699    
     44420   1243.3178     -5411.6803     -5164.9882      2593.772       57862.444      173.57035    
     44430   1258.1123     -5414.1606     -5164.5331      2396.4936      57853.123      173.69372    
     44440   1274.1164     -5416.7827     -5163.9798      2162.042       57842.989      173.82528    
     44450   1262.7683     -5413.8962     -5163.3449      2145.4047      57831.619      173.96793    
     44460   1287.5982     -5418.1201     -5162.6422      1870.8245      57819.057      174.11239    
     44470   1314.8298     -5422.7897     -5161.9086      1712.7671      57805.288      174.25371    
     44480   1312.2947     -5421.6123     -5161.2342      1925.137       57790.258      174.39581    
     44490   1312.3277     -5421.048      -5160.6634      2147.0043      57774.086      174.52005    
     44500   1295.2088     -5417.1515     -5160.1635      2524.4815      57756.75       174.59887    
     44510   1281.0694     -5413.8666     -5159.6841      2910.9619      57738.366      174.60905    
     44520   1295.7078     -5416.2565     -5159.1695      2981.8818      57719.102      174.55942    
     44530   1313.6547     -5419.2839     -5158.636       2949.0006      57699.051      174.50106    
     44540   1330.0824     -5422.0657     -5158.1583      2882.6428      57678.322      174.46248    
     44550   1332.5811     -5422.2063     -5157.8031      2943.1798      57657.136      174.44169    
     44560   1335.5777     -5422.6344     -5157.6367      2948.0591      57635.587      174.41789    
     44570   1317.0662     -5419.0118     -5157.687       2950.1253      57613.361      174.38531    
     44580   1309.5471     -5417.8217     -5157.9888      2866.6101      57590.105      174.345      
     44590   1287.5023     -5413.9427     -5158.4839      2939.4447      57565.891      174.30078    
     44600   1293.581      -5415.828      -5159.163       2918.1637      57541.181      174.25669    
     44610   1303.0459     -5418.6119     -5160.069       2876.4171      57516.386      174.22377    
     44620   1313.5922     -5421.8947     -5161.2591      2771.9395      57491.607      174.2269     
     44630   1299.2375     -5420.5049     -5162.7176      2907.0737      57466.747      174.25976    
     44640   1264.9373     -5415.3259     -5164.3442      3313.9887      57441.866      174.30376    
     44650   1240.633      -5412.0868     -5165.9274      3613.5995      57417.346      174.33556    
     44660   1237.1385     -5412.8167     -5167.3507      3658.6672      57393.676      174.35969    
     44670   1243.9487     -5415.4127     -5168.5955      3445.6611      57370.968      174.38974    
     44680   1267.2676     -5421.1428     -5169.6988      3148.9967      57349.041      174.43231    
     44690   1275.5401     -5423.8187     -5170.7333      3082.4698      57327.841      174.47588    
     44700   1261.2838     -5421.9694     -5171.7126      3333.9451      57307.387      174.50655    
     44710   1239.7982     -5418.5962     -5172.6025      3584.8387      57287.502      174.51494    
     44720   1205.2354     -5412.4464     -5173.3105      3852.2186      57267.643      174.5071     
     44730   1198.8823     -5411.6565     -5173.7811      3797.3201      57247.339      174.48487    
     44740   1216.9126     -5415.4618     -5174.0089      3475.8755      57226.381      174.43539    
     44750   1242.6209     -5420.6243     -5174.0705      3289.3491      57204.899      174.35486    
     44760   1251.1727     -5422.2898     -5174.0392      3397.0493      57183.325      174.26396    
     44770   1250.0247     -5421.9697     -5173.9469      3526.6153      57162.052      174.17865    
     44780   1267.6802     -5425.3623     -5173.8364      3373.4145      57141.408      174.09468    
     44790   1269.3307     -5425.5908     -5173.7374      3266.1096      57121.605      174.01599    
     44800   1254.6109     -5422.5868     -5173.654       3198.9307      57102.893      173.97946    
     44810   1257.6818     -5423.1119     -5173.5699      2868.3984      57085.275      174.00101    
     44820   1257.6818     -5423.0237     -5173.4816      2756.4641      57068.133      174.06714    
     44830   1246.0137     -5420.5928     -5173.3658      2826.0821      57051.038      174.1407     
     44840   1266.4528     -5424.5101     -5173.2278      2628.9129      57033.867      174.18107    
     44850   1272.4989     -5425.5736     -5173.0916      2546.3406      57016.505      174.19783    
     44860   1282.026      -5427.39       -5173.0177      2619.7558      56998.907      174.21593    
     44870   1275.43       -5426.0823     -5173.0187      2937.2804      56981.268      174.23424    
     44880   1261.2195     -5423.3368     -5173.0928      3253.3294      56964.174      174.25937    
     44890   1260.7535     -5423.3496     -5173.1981      3218.6932      56948.124      174.31802    
     44900   1263.3857     -5424.0081     -5173.3342      2908.972       56933.084      174.40871    
     44910   1275.9073     -5426.7089     -5173.5506      2685.3949      56918.456      174.51285    
     44920   1278.1708     -5427.4823     -5173.8749      2697.9824      56903.759      174.6267     
     44930   1274.8403     -5427.2769     -5174.3303      2881.6464      56889.12       174.7612     
     44940   1261.998      -5425.3235     -5174.925       3297.221       56874.759      174.91573    
     44950   1241.3946     -5421.9404     -5175.63        3848.8183      56860.925      175.06163    
     44960   1239.3072     -5422.2825     -5176.3862      4102.4588      56848.117      175.17298    
     44970   1247.0185     -5424.6343     -5177.208       3993.7169      56836.6        175.27261    
     44980   1255.7202     -5427.2739     -5178.1211      3875.1609      56826.295      175.38831    
     44990   1268.8555     -5430.9119     -5179.1528      3718.2874      56816.886      175.52128    
     45000   1269.8555     -5432.3218     -5180.3643      3645.6218      56807.948      175.66951    
     45010   1249.6294     -5429.644      -5181.6997      3522.8737      56799.285      175.82522    
     45020   1244.767      -5430.0699     -5183.0903      3338.6805      56790.898      175.96665    
     45030   1236.8666     -5429.8638     -5184.4517      3287.2694      56782.952      176.09327    
     45040   1233.9847     -5430.579      -5185.7387      3224.0229      56775.5        176.22056    
     45050   1220.0683     -5429.0006     -5186.9216      3262.1081      56768.213      176.34578    
     45060   1191.6544     -5424.2992     -5187.8579      3372.49        56760.884      176.45103    
     45070   1210.4409     -5428.7457     -5188.5769      3087.7122      56753.799      176.5412     
     45080   1229.3045     -5433.0231     -5189.1114      2680.0865      56747.097      176.63026    
     45090   1240.9129     -5435.7623     -5189.5474      2435.5514      56740.489      176.73227    
     45100   1260.4617     -5440.0521     -5189.9585      2214.5071      56733.74       176.85341    
     45110   1262.1089     -5440.8204     -5190.3999      2351.8017      56726.682      176.9908     
     45120   1239.118      -5436.7163     -5190.8576      2746.2439      56719.116      177.12549    
     45130   1220.6358     -5433.4753     -5191.2837      3153.7539      56711.23       177.24084    
     45140   1201.5542     -5429.981      -5191.5754      3558.4136      56703.447      177.32496    
     45150   1214.7474     -5432.7557     -5191.7325      3761.1175      56696.299      177.36933    
     45160   1216.2567     -5433.0824     -5191.7597      3675.8821      56690.171      177.38588    
     45170   1204.9786     -5430.7738     -5191.6888      3561.9207      56685.114      177.39799    
     45180   1203.5785     -5430.3186     -5191.5114      3295.2843      56680.866      177.42179    
     45190   1183.7869     -5426.0574     -5191.1771      3352.9629      56676.932      177.45387    
     45200   1174.8318     -5423.7744     -5190.671       3500.7965      56673.092      177.50209    
     45210   1182.7159     -5424.6002     -5189.9324      3345.082       56669.375      177.57118    
     45220   1198.0362     -5426.6836     -5188.9761      2968.2157      56665.853      177.65755    
     45230   1207.7406     -5427.5321     -5187.8991      2709.9669      56662.396      177.75866    
     45240   1219.8128     -5428.7794     -5186.7511      2568.1742      56658.77       177.87529    
     45250   1238.9754     -5431.4432     -5185.6128      2529.5035      56654.797      178.01554    
     45260   1225.6781     -5427.7529     -5184.5608      2713.3962      56650.564      178.17745    
     45270   1230.0531     -5427.6801     -5183.6199      2749.8641      56646.343      178.34028    
     45280   1248.9437     -5430.6079     -5182.7996      2797.6024      56642.039      178.49053    
     45290   1253.6572     -5430.8888     -5182.1452      3018.835       56637.297      178.61697    
     45300   1260.1883     -5431.7157     -5181.6763      3121.0349      56632.034      178.7296     
     45310   1256.9721     -5430.7734     -5181.3722      3164.9219      56626.377      178.84666    
     45320   1252.2771     -5429.673      -5181.2033      3220.8956      56620.679      178.97038    
     45330   1261.9322     -5431.5267     -5181.1413      3165.1463      56615.39       179.10687    
     45340   1261.335      -5431.4385     -5181.1715      3120.63        56610.658      179.27121    
     45350   1250.2995     -5429.3774     -5181.3001      3149.5808      56606.359      179.46694    
     45360   1222.9202     -5424.1007     -5181.4558      3261.897       56602.243      179.6734     
     45370   1218.2671     -5423.3046     -5181.5829      3179.5308      56598.012      179.87593    
     45380   1216.5625     -5423.0273     -5181.6439      3082.4215      56593.332      180.07844    
     45390   1219.4551     -5423.6115     -5181.6541      3142.4547      56588.148      180.28798    
     45400   1224.1658     -5424.5178     -5181.6258      3330.2269      56582.707      180.4901     
     45410   1240.7671     -5427.7782     -5181.5922      3400.1114      56577.406      180.66993    
     45420   1231.1111     -5425.8365     -5181.5665      3634.3291      56572.329      180.8368     
     45430   1233.7571     -5426.3804     -5181.5853      3678.2621      56567.332      180.99814    
     45440   1231.4874     -5425.9409     -5181.5962      3712.9291      56562.297      181.15182    
     45450   1237.5232     -5427.1677     -5181.6254      3627.4976      56557.434      181.29973    
     45460   1239.8879     -5427.7108     -5181.6993      3597.044       56553.136      181.45317    
     45470   1231.9315     -5426.239      -5181.8062      3659.8519      56549.809      181.60567    
     45480   1219.9843     -5424.015      -5181.9527      3745.1946      56547.686      181.72615    
     45490   1204.9137     -5421.1432     -5182.071       3745.3464      56546.833      181.80686    
     45500   1209.6417     -5422.1067     -5182.0964      3582.3186      56547.108      181.88089    
     45510   1242.2702     -5428.5981     -5182.1139      3064.1487      56548.141      181.982      
     45520   1263.7219     -5432.9268     -5182.1862      2585.0997      56549.489      182.09278    
     45530   1290.3732     -5438.4778     -5182.4493      2006.6174      56550.477      182.19508    
     45540   1265.891      -5434.144      -5182.9731      2025.1001      56550.352      182.28957    
     45550   1245.7602     -5430.902      -5183.7253      2215.3377      56549.12       182.39055    
     45560   1246.6848     -5432.0094     -5184.6493      2433.2629      56547.115      182.5073     
     45570   1245.5313     -5432.8986     -5185.7673      2603.722       56544.522      182.64293    
     45580   1228.2549     -5430.754      -5187.0507      2914.3338      56541.313      182.80189    
     45590   1207.7357     -5428.043      -5188.4109      3148.1746      56537.529      182.98632    
     45600   1199.8912     -5427.8357     -5189.7601      3220.2246      56533.291      183.20689    
     45610   1189.0219     -5426.9454     -5191.0265      3295.4367      56528.837      183.45247    
     45620   1183.5317     -5426.9557     -5192.126       3309.1029      56524.407      183.68235    
     45630   1206.5098     -5432.4727     -5193.0838      3013.8261      56519.944      183.88827    
     45640   1215.7993     -5435.1837     -5193.9517      2829.5051      56515.217      184.10288    
     45650   1214.2631     -5435.6788     -5194.7516      2911.0253      56510.001      184.3178     
     45660   1191.9535     -5431.9541     -5195.4535      3159.6079      56504.274      184.48476    
     45670   1181.9167     -5430.5021     -5195.9929      3281.598       56498.356      184.58565    
     45680   1202.0346     -5434.8823     -5196.3814      3156.5022      56492.539      184.63533    
     45690   1221.9934     -5439.149      -5196.6881      3077.613       56486.92       184.64636    
     45700   1220.1934     -5439.0839     -5196.98        3267.9494      56481.761      184.62162    
     45710   1196.261      -5434.5872     -5197.2318      3627.8083      56477.361      184.57683    
     45720   1204.1973     -5436.3556     -5197.4256      3496.9264      56473.96       184.53021    
     45730   1216.2364     -5438.8689     -5197.5502      3049.6616      56471.28       184.5029     
     45740   1224.0736     -5440.5557     -5197.6819      2702.1608      56468.686      184.51045    
     45750   1220.7295     -5440.0382     -5197.828       2518.9358      56465.772      184.55424    
     45760   1208.813      -5437.8314     -5197.9856      2627.4867      56462.457      184.60938    
     45770   1184.7459     -5433.1765     -5198.106       3021.748       56458.723      184.65391    
     45780   1179.1555     -5432.0852     -5198.1239      3207.5629      56454.597      184.68757    
     45790   1199.8953     -5436.1362     -5198.0598      3098.2486      56450.225      184.71522    
     45800   1194.7576     -5434.9882     -5197.9311      3153.6999      56445.671      184.76246    
     45810   1189.2707     -5433.7375     -5197.7692      3202.0108      56440.885      184.84533    
     45820   1197.6136     -5435.1885     -5197.5648      2987.0143      56435.721      184.92837    
     45830   1207.5364     -5436.9221     -5197.3296      2920.5201      56430.072      185.00485    
     45840   1202.8687     -5435.7675     -5197.1011      3001.7398      56423.969      185.09725    
     45850   1214.5113     -5437.8695     -5196.8931      2971.071       56417.521      185.21376    
     45860   1230.5555     -5440.8966     -5196.7368      2778.9317      56410.607      185.33669    
     45870   1213.2985     -5437.3846     -5196.6488      2898.7999      56403.101      185.44981    
     45880   1215.803      -5437.8505     -5196.6177      2938.3274      56395.242      185.56006    
     45890   1234.0014     -5441.4734     -5196.6298      2841.1735      56387.309      185.69597    
     45900   1241.8548     -5443.1444     -5196.7426      2915.8065      56379.295      185.84812    
     45910   1231.5622     -5441.3254     -5196.9659      3267.1624      56370.958      185.97203    
     45920   1246.2346     -5444.5697     -5197.2989      3305.8048      56362.233      186.05161    
     45930   1260.9052     -5447.9557     -5197.774       3317.2988      56353.001      186.12254    
     45940   1240.9027     -5444.6195     -5198.4066      3622.6721      56343.165      186.22172    
     45950   1214.4821     -5440.0818     -5199.1111      3994.2618      56332.864      186.33908    
     45960   1215.492      -5440.9644     -5199.7933      4030.3683      56322.845      186.47071    
     45970   1220.0303     -5442.5273     -5200.4559      3886.5243      56313.805      186.63731    
     45980   1233.6202     -5445.8914     -5201.1234      3398.7044      56305.668      186.83405    
     45990   1240.9925     -5448.0743     -5201.8437      3082.8708      56297.801      187.02604    
     46000   1218.5497     -5444.3617     -5202.584       3129.4635      56289.618      187.18657    
     46010   1225.9338     -5446.5579     -5203.315       2833.3826      56280.896      187.30627    
     46020   1220.3765     -5446.1635     -5204.0233      2607.9334      56271.34       187.38823    
     46030   1191.2532     -5441.038      -5204.6763      2833.2988      56260.738      187.47079    
     46040   1175.1708     -5438.3591     -5205.1884      2980.353       56249.149      187.58473    
     46050   1177.6076     -5439.2032     -5205.549       3025.2088      56236.614      187.70865    
     46060   1183.8786     -5440.7065     -5205.8081      3143.6177      56223.029      187.7918     
     46070   1168.1368     -5437.7263     -5205.9512      3477.5296      56208.522      187.87772    
     46080   1172.944      -5438.7228     -5205.9939      3639.9173      56193.406      188.00275    
     46090   1171.4598     -5438.3738     -5205.9394      3742.596       56178.039      188.14334    
     46100   1170.4546     -5438.0468     -5205.8118      3813.8112      56162.798      188.27992    
     46110   1185.2227     -5440.7725     -5205.6073      3721.8316      56147.864      188.42424    
     46120   1212.1336     -5445.899      -5205.3944      3533.8         56133.126      188.59827    
     46130   1214.71       -5446.2583     -5205.2424      3518.1466      56118.356      188.7893     
     46140   1208.7772     -5445.0139     -5205.1752      3501.5764      56103.553      188.97099    
     46150   1210.408      -5445.3402     -5205.1779      3219.2512      56088.765      189.12615    
     46160   1211.4288     -5445.6127     -5205.2479      3121.536       56073.899      189.241      
     46170   1193.6124     -5442.2018     -5205.372       3135.8511      56059.008      189.31817    
     46180   1185.3874     -5440.7164     -5205.5186      3110.1359      56044.364      189.39031    
     46190   1159.2227     -5435.6202     -5205.6138      3200.097       56030.107      189.46693    
     46200   1159.5552     -5435.6946     -5205.6222      3211.7137      56016.226      189.53483    
     46210   1160.584      -5435.7876     -5205.5111      3451.5686      56002.669      189.6042     
     46220   1168.3176     -5437.0942     -5205.2833      3544.2627      55989.613      189.6685     
     46230   1190.0257     -5441.0845     -5204.9663      3237.99        55977.142      189.70106    
     46240   1200.5323     -5442.8459     -5204.6431      3064.4541      55964.803      189.69041    
     46250   1198.9582     -5442.2336     -5204.3432      3047.3302      55952.317      189.64798    
     46260   1176.0087     -5437.3817     -5204.0447      3270.237       55939.918      189.60641    
     46270   1186.6541     -5439.1575     -5203.7083      3208.218       55927.904      189.57093    
     46280   1200.0136     -5441.4196     -5203.3197      3137.6297      55916.083      189.53684    
     46290   1201.3348     -5441.2994     -5202.9374      3342.3421      55904.109      189.52397    
     46300   1201.2861     -5440.9131     -5202.5607      3632.8814      55892.132      189.54779    
     46310   1175.4797     -5435.4031     -5202.1711      4039.9319      55880.472      189.58482    
     46320   1179.8632     -5435.8224     -5201.7206      4085.3934      55869.188      189.61027    
     46330   1197.123      -5438.6825     -5201.1561      4020.3473      55858.215      189.61394    
     46340   1207.0746     -5440.0342     -5200.5333      4145.0398      55847.671      189.61864    
     46350   1216.1492     -5441.176      -5199.8746      4286.3527      55837.768      189.64737    
     46360   1244.4693     -5446.1854     -5199.2649      4080.1686      55828.619      189.66345    
     46370   1240.5276     -5444.9103     -5198.7718      4126.7463      55820.216      189.68197    
     46380   1239.8042     -5444.4653     -5198.4704      4069.4133      55812.599      189.71289    
     46390   1236.8108     -5443.7728     -5198.3718      4147.6943      55805.638      189.73801    
     46400   1227.0557     -5441.955      -5198.4895      4215.1462      55799.544      189.7364     
     46410   1241.5964     -5445.182      -5198.8315      3988.3589      55794.792      189.73808    
     46420   1249.4077     -5447.384      -5199.4837      3699.1445      55791.448      189.78055    
     46430   1233.6498     -5445.2915     -5200.5177      3597.1858      55789.121      189.86388    
     46440   1208.673      -5441.6609     -5201.8428      3612.2943      55787.672      189.98897    
     46450   1196.0496     -5440.6699     -5203.3566      3463.9405      55787.254      190.14812    
     46460   1191.9179     -5441.4287     -5204.9351      3291.923       55787.747      190.31458    
     46470   1211.7151     -5446.9717     -5206.5501      2984.5217      55788.898      190.45211    
     46480   1210.5223     -5448.3655     -5208.1805      2902.3145      55790.423      190.55958    
     46490   1180.1157     -5443.8805     -5209.7286      3179.0107      55792.155      190.64633    
     46500   1161.6019     -5441.5309     -5211.0524      3297.5883      55794.226      190.71805    
     46510   1170.2219     -5444.3324     -5212.1436      3079.0183      55796.654      190.78626    
     46520   1169.3206     -5445.0641     -5213.0541      2993.9156      55799.184      190.86313    
     46530   1168.4804     -5445.6573     -5213.8141      3017.5962      55801.507      190.93563    
     46540   1179.5972     -5448.546      -5214.497       2992.5745      55803.358      190.99588    
     46550   1153.4723     -5443.9644     -5215.0989      3425.127       55804.87       191.06952    
     46560   1139.8448     -5441.7429     -5215.5814      3813.3806      55806.669      191.17187    
     46570   1142.4579     -5442.6072     -5215.9272      4103.1571      55809.497      191.29231    
     46580   1133.238      -5440.9764     -5216.1258      4457.546       55813.772      191.42711    
     46590   1135.2703     -5441.4602     -5216.2063      4605.975       55819.793      191.59684    
     46600   1132.3202     -5440.8168     -5216.1482      4602.742       55827.831      191.80282    
     46610   1132.9448     -5440.7618     -5215.9694      4581.9603      55838.156      192.0184     
     46620   1127.6676     -5439.3885     -5215.6432      4522.4556      55850.817      192.20805    
     46630   1154.1364     -5444.1921     -5215.1949      4188.4014      55865.38       192.37155    
     46640   1169.9956     -5446.8021     -5214.6582      3896.3793      55881.244      192.52028    
     46650   1171.9356     -5446.6351     -5214.1063      3649.7087      55897.933      192.66022    
     46660   1171.6528     -5446.0316     -5213.5589      3415.1599      55915.142      192.80723    
     46670   1186.0492     -5448.364      -5213.0349      3095.1564      55932.664      192.95498    
     46680   1174.7322     -5445.6346     -5212.5509      3151.8188      55950.28       193.09024    
     46690   1155.3195     -5441.3401     -5212.1082      3303.5314      55968.181      193.22462    
     46700   1148.5214     -5439.5229     -5211.6398      3263.5533      55986.946      193.37173    
     46710   1142.9214     -5437.8519     -5211.08        3166.1699      56006.987      193.54196    
     46720   1179.78       -5444.5316     -5210.4464      2731.4321      56028.313      193.74113    
     46730   1216.3634     -5451.1571     -5209.8132      2255.2814      56050.391      193.97343    
     46740   1222.38       -5451.8804     -5209.3427      2234.5614      56072.449      194.24752    
     46750   1205.1571     -5448.1981     -5209.0777      2469.0234      56094.201      194.54782    
     46760   1203.6987     -5447.8279     -5208.9968      2399.223       56115.553      194.81213    
     46770   1179.4481     -5443.084      -5209.0646      2551.4165      56135.983      195.01882    
     46780   1159.1817     -5439.1967     -5209.1984      2731.3959      56155.082      195.16862    
     46790   1159.3628     -5439.3922     -5209.358       2877.2358      56172.881      195.27864    
     46800   1150.2855     -5437.7523     -5209.5192      3057.3402      56189.71       195.36166    
     46810   1176.7929     -5443.1957     -5209.7031      2926.2906      56206.087      195.44107    
     46820   1193.8091     -5446.8204     -5209.9516      2686.6986      56222.304      195.56633    
     46830   1212.285      -5450.9498     -5210.4151      2538.6046      56238.348      195.74243    
     46840   1188.651      -5446.9911     -5211.1457      2741.5257      56254.136      195.93896    
     46850   1168.9196     -5444.009      -5212.0786      2802.7061      56269.663      196.16194    
     46860   1163.46       -5444.0511     -5213.204       2654.8543      56284.984      196.38721    
     46870   1172.632      -5447.1562     -5214.4893      2331.9098      56300.122      196.5886     
     46880   1156.6212     -5445.405      -5215.9148      2232.6661      56314.905      196.75791    
     46890   1144.7203     -5444.5247     -5217.3957      2165.2904      56329.137      196.87639    
     46900   1130.8627     -5443.1755     -5218.7962      2180.0226      56342.782      196.95547    
     46910   1120.0532     -5442.2948     -5220.0602      2265.418       56356.069      197.04587    
     46920   1117.7604     -5442.8745     -5221.0948      2227.7878      56369.376      197.16282    
     46930   1132.4277     -5446.6201     -5221.9302      2089.4122      56383.033      197.28814    
     46940   1129.9443     -5446.7827     -5222.5856      2102.7019      56396.974      197.41599    
     46950   1121.1441     -5445.5427     -5223.0917      2312.0432      56411.036      197.56318    
     46960   1121.925      -5446.0386     -5223.4326      2371.1126      56425.13       197.71741    
     46970   1112.7461     -5444.4152     -5223.6304      2559.7764      56439.109      197.87906    
     46980   1110.6064     -5444.0372     -5223.677       2585.3934      56453.074      198.05648    
     46990   1118.8392     -5445.5709     -5223.5772      2368.6833      56467.001      198.24353    
     47000   1120.4421     -5445.6724     -5223.3606      2250.5591      56480.385      198.40743    
     47010   1132.9845     -5447.8652     -5223.0649      2157.7311      56492.676      198.53284    
     47020   1138.0975     -5448.5365     -5222.7216      2073.7499      56503.43       198.63433    
     47030   1129.9465     -5446.545      -5222.3475      2051.0398      56512.484      198.73302    
     47040   1135.4389     -5447.2394     -5221.952       2053.6577      56520.047      198.84204    
     47050   1158.0985     -5451.3329     -5221.5495      1908.7542      56526.361      198.95395    
     47060   1161.2912     -5451.6075     -5221.1907      1928.4628      56531.604      199.065      
     47070   1148.6737     -5448.8152     -5220.9019      2071.3466      56535.941      199.16939    
     47080   1137.5462     -5446.3524     -5220.647       2205.5553      56539.539      199.25222    
     47090   1141.9768     -5446.9585     -5220.3739      2123.658       56542.608      199.30673    
     47100   1142.2046     -5446.7172     -5220.0874      1975.1901      56545.147      199.34579    
     47110   1156.6754     -5449.3154     -5219.8145      1786.5857      56546.821      199.38878    
     47120   1171.4834     -5452.0404     -5219.6013      1643.4375      56547.224      199.46385    
     47130   1167.544      -5451.1443     -5219.4868      1705.1284      56546.055      199.56587    
     47140   1146.5212     -5446.9424     -5219.4562      1748.6341      56542.953      199.68254    
     47150   1129.7821     -5443.6077     -5219.4427      1803.706       56537.93       199.81358    
     47160   1116.5607     -5440.9354     -5219.3938      1837.5499      56531.294      199.95136    
     47170   1112.6823     -5440.0287     -5219.2566      1884.332       56523.037      200.08171    
     47180   1109.3894     -5439.1289     -5219.0102      1947.6614      56512.999      200.20914    
     47190   1120.1652     -5440.8999     -5218.6431      1813.0262      56501.266      200.30491    
     47200   1152.4788     -5446.8662     -5218.1979      1557.0793      56487.88       200.36966    
     47210   1161.9199     -5448.2886     -5217.747       1559.3464      56472.748      200.43598    
     47220   1160.2818     -5447.5712     -5217.3546      1695.9318      56456.078      200.49573    
     47230   1159.7437     -5447.1101     -5217.0004      1838.9946      56438.213      200.52381    
     47240   1151.8128     -5445.2296     -5216.6935      2029.8582      56419.24       200.54212    
     47250   1156.8213     -5445.9353     -5216.4054      2270.5818      56399.02       200.57575    
     47260   1160.913      -5446.4806     -5216.1388      2532.8099      56377.373      200.61623    
     47270   1166.6189     -5447.384      -5215.9101      2773.1735      56354.259      200.63901    
     47280   1161.891      -5446.2759     -5215.7401      3092.0009      56329.654      200.6549     
     47290   1171.6864     -5448.0959     -5215.6166      3110.7932      56303.717      200.68061    
     47300   1172.2666     -5448.204      -5215.6095      3149.2454      56276.7        200.74071    
     47310   1165.7075     -5447.0555     -5215.7625      3131.9115      56248.821      200.83651    
     47320   1149.8553     -5444.2196     -5216.0718      3195.1869      56220.273      200.9444     
     47330   1145.1766     -5443.7607     -5216.5413      3330.3093      56191.08       201.05662    
     47340   1137.6985     -5442.8569     -5217.1213      3505.0945      56161.289      201.16309    
     47350   1144.7108     -5444.9363     -5217.8093      3366.9664      56131.137      201.23502    
     47360   1163.9107     -5449.5897     -5218.6532      3234.7688      56100.469      201.27089    
     47370   1153.8296     -5448.6086     -5219.6723      3462.7545      56069.046      201.30629    
     47380   1139.1916     -5446.827      -5220.7951      3830.2822      56037.106      201.37776    
     47390   1152.398      -5450.6356     -5221.9834      3809.2538      56005.085      201.50591    
     47400   1154.8276     -5452.3872     -5223.2529      3718.6609      55972.982      201.68       
     47410   1154.0836     -5453.5554     -5224.5687      3509.1173      55940.459      201.84655    
     47420   1153.3275     -5454.7562     -5225.9195      3429.144       55907.174      201.98798    
     47430   1149.64       -5455.3531     -5227.2481      3460.7991      55873.171      202.10467    
     47440   1155.6154     -5457.854      -5228.5634      3421.6773      55838.612      202.19507    
     47450   1145.9224     -5457.1871     -5229.8197      3455.8273      55803.631      202.28901    
     47460   1154.8318     -5460.1747     -5231.0395      3461.2632      55768.5        202.41282    
     47470   1131.4002     -5456.6752     -5232.1892      3702.2577      55733.484      202.52743    
     47480   1127.2392     -5456.8898     -5233.2294      3924.5018      55698.901      202.5972     
     47490   1136.168      -5459.6162     -5234.1842      3984.8162      55665.04       202.63587    
     47500   1116.5177     -5456.577      -5235.0439      4223.1997      55632.07       202.6641     
     47510   1113.5251     -5456.7572     -5235.8179      4357.1232      55600.176      202.69525    
     47520   1118.6563     -5458.4458     -5236.4884      4273.2447      55569.345      202.7545     
     47530   1122.4132     -5459.7964     -5237.0935      4078.3146      55539.577      202.83531    
     47540   1123.9842     -5460.6936     -5237.679       3702.6582      55510.74       202.89185    
     47550   1109.2508     -5458.3268     -5238.2355      3503.2204      55482.345      202.90844    
     47560   1098.9307     -5456.7828     -5238.7393      3365.8458      55453.94       202.88586    
     47570   1091.8395     -5455.7677     -5239.1311      3287.492       55425.386      202.81823    
     47580   1116.6495     -5460.9928     -5239.4335      2983.782       55396.713      202.73032    
     47590   1122.2538     -5462.3833     -5239.7121      2977.6348      55367.866      202.64553    
     47600   1106.0975     -5459.4467     -5239.9811      3281.3759      55338.865      202.56513    
[...]
     78200   1032.1534     -5415.9034     -5211.1094      283.89854      64395.027      472.51904    
     78210   1041.5345     -5417.7997     -5211.1443      131.2985       64363.471      472.41795    
     78220   1049.7102     -5419.6329     -5211.3554     -154.20306      64333.128      472.32484    
     78230   1048.4336     -5419.7831     -5211.7588     -387.23045      64302.414      472.24223    
     78240   1050.2925     -5420.7535     -5212.3605     -449.89343      64270.002      472.15537    
     78250   1042.4198     -5419.964      -5213.133      -345.67964      64235.567      472.02347    
     78260   1046.4804     -5421.6921     -5214.0554     -225.7856       64199.665      471.83765    
     78270   1038.2162     -5421.0886     -5215.0917     -5.5280157      64163.06       471.61938    
     78280   1019.19       -5418.3615     -5216.1395      284.99373      64127.022      471.40577    
     78290   1009.3977     -5417.3851     -5217.1062      406.33221      64093.107      471.22687    
     78300   1005.2389     -5417.3892     -5217.9354      414.29665      64062.013      471.0885     
     78310   1006.6306     -5418.3413     -5218.6114      434.71425      64033.776      470.98993    
     78320   1010.2151     -5419.6036     -5219.1625      555.42998      64008.544      470.92894    
     78330   1014.5614     -5420.9202     -5219.6166      645.7933       63986.912      470.90137    
     78340   1031.5925     -5424.724      -5220.0413      594.42105      63969.214      470.8953     
     78350   1039.1013     -5426.6704     -5220.4978      601.16377      63955.209      470.90292    
     78360   1022.7747     -5423.9293     -5220.9962      824.5639       63945.001      470.93791    
     78370   1007.085      -5421.3047     -5221.4846      956.56628      63939.643      470.98956    
     78380   1014.3561     -5423.2097     -5221.9469      856.46174      63939.752      471.05558    
     78390   1020.5291     -5424.9071     -5222.4195      693.13533      63944.781      471.16347    
     78400   1021.0529     -5425.5198     -5222.9283      470.29366      63953.685      471.33024    
     78410   1012.3981     -5424.3472     -5223.4729      278.26296      63965.217      471.54035    
     78420   1007.4474     -5423.9312     -5224.0391      96.038013      63978.216      471.76338    
     78430   997.79514     -5422.5743     -5224.5975      10.325349      63991.672      471.98595    
     78440   983.40913     -5420.2357     -5225.1133      43.705863      64005.094      472.20698    
     78450   981.18691     -5420.2321     -5225.5505      21.787738      64018.581      472.4267     
     78460   997.46145     -5423.8308     -5225.9202     -90.286568      64031.998      472.65403    
     78470   1007.0371     -5426.0852     -5226.2746     -63.353231      64044.817      472.88668    
     78480   1008.1481     -5426.6777     -5226.6467      62.781539      64057.179      473.1069     
     78490   1010.8969     -5427.6357     -5227.0593      193.46743      64069.77       473.30087    
     78500   1007.9602     -5427.4995     -5227.5058      374.12294      64083.421      473.45606    
     78510   1001.2503     -5426.6426     -5227.9802      559.14955      64099.15       473.58547    
     78520   998.39087     -5426.5675     -5228.4725      688.68329      64117.975      473.73507    
     78530   997.00009     -5426.7927     -5228.9736      675.2103       64140.533      473.92362    
     78540   983.70531     -5424.6317     -5229.4505      654.93152      64166.822      474.13991    
     78550   992.04164     -5426.7257     -5229.8904      406.75114      64196.595      474.36929    
     78560   996.8158      -5428.0822     -5230.2996      153.29404      64228.513      474.59919    
     78570   993.56594     -5427.8361     -5230.6983      99.465243      64261.205      474.81909    
     78580   996.30962     -5428.7659     -5231.0838      19.466527      64294.203      475.03263    
     78590   1001.9555     -5430.2736     -5231.4712     -40.774277      64327.103      475.25052    
     78600   998.41255     -5429.9722     -5231.8728     -38.409605      64359.554      475.48954    
     78610   987.1312      -5428.1411     -5232.2801     -16.685951      64391.556      475.77021    
     78620   987.02792     -5428.5007     -5232.6603     -167.22573      64423.149      476.08368    
     78630   990.95213     -5429.6254     -5233.0063     -469.19619      64453.452      476.39353    
     78640   991.4835      -5430.0612     -5233.3366     -719.61105      64480.844      476.67827    
     78650   983.60883     -5428.8109     -5233.6488     -816.94339      64503.916      476.92979    
     78660   974.09158     -5427.1945     -5233.9207     -810.94908      64522.088      477.13157    
     78670   965.7955      -5425.7468     -5234.1192     -701.49319      64535.473      477.27131    
     78680   956.15898     -5423.9172     -5234.2016     -540.43861      64544.697      477.35773    
     78690   949.42517     -5422.504      -5234.1245     -384.92962      64550.723      477.41634    
     78700   952.49444     -5422.8223     -5233.8337     -307.84939      64554.412      477.47264    
     78710   963.82911     -5424.5475     -5233.31       -173.49384      64556.307      477.53596    
     78720   975.20318     -5426.0409     -5232.5466     -50.81266       64557.14       477.61032    
     78730   978.01031     -5425.6124     -5231.5612      145.65839      64557.731      477.69761    
     78740   987.33684     -5426.2676     -5230.3658      287.42568      64559.17       477.79184    
     78750   986.03217     -5424.6486     -5229.0057      395.30706      64562.274      477.88358    
     78760   982.53595     -5422.5044     -5227.5552      418.277        64567.629      477.9837     
     78770   987.52439     -5422.0107     -5226.0718      342.87907      64575.387      478.09497    
     78780   992.57968     -5421.5863     -5224.6443      323.12466      64585.189      478.19332    
     78790   999.33841     -5421.6398     -5223.3567      222.42033      64596.809      478.26193    
     78800   1009.2932     -5422.5216     -5222.2634      166.6985       64609.78       478.30933    
     78810   1023.1176     -5424.3853     -5221.3841      8.8234922      64623.656      478.35372    
     78820   1038.2075     -5426.7404     -5220.7451     -211.26301      64637.53       478.40411    
     78830   1037.599      -5426.2255     -5220.351      -364.78743      64650.173      478.4598     
     78840   1032.4191     -5425.0045     -5220.1578     -536.2512       64660.651      478.52365    
     78850   1036.3217     -5425.7402     -5220.1192     -753.70519      64667.937      478.58865    
     78860   1034.0567     -5425.3942     -5220.2225     -851.20682      64670.843      478.63547    
     78870   1027.0563     -5424.2314     -5220.4488     -819.09356      64668.775      478.64785    
     78880   1020.145      -5423.1702     -5220.7588     -735.71842      64661.925      478.61929    
     78890   1021.3405     -5423.7784     -5221.1299     -729.8865       64650.713      478.5526     
     78900   1021.1662     -5424.1758     -5221.5618     -696.40004      64635.248      478.45661    
     78910   1016.5662     -5423.7689     -5222.0676     -506.20048      64615.79       478.33165    
     78920   1004.9238     -5422.006      -5222.6147     -257.92346      64593.392      478.19812    
     78930   998.68539     -5421.3124     -5223.1589     -138.74165      64569.407      478.09841    
     78940   1001.6306     -5422.4341     -5223.6962     -1.6689396      64544.641      478.05307    
     78950   999.20425     -5422.4758     -5224.2194      181.38197      64519.898      478.04462    
     78960   998.18125     -5422.7816     -5224.7282      274.7566       64496.204      478.04298    
     78970   1002.4747     -5424.1348     -5225.2294      267.83943      64474.093      478.02299    
     78980   996.6307      -5423.4646     -5225.7188      351.74523      64453.629      477.96638    
     78990   1001.6772     -5424.9496     -5226.2025      331.43442      64435.155      477.87869    
     79000   1003.1051     -5425.7175     -5226.6871      334.07817      64418.681      477.77202    
     79010   999.12932     -5425.4183     -5227.1768      257.85072      64404.1        477.66475    
     79020   1000.6325     -5426.2072     -5227.6673      143.00983      64391.019      477.57916    
     79030   1006.2942     -5427.8262     -5228.163       29.656554      64378.765      477.52649    
     79040   1015.5456     -5430.1963     -5228.6975     -55.381229      64366.701      477.49509    
     79050   1019.5485     -5431.5941     -5229.3011     -115.80919      64354.317      477.46923    
     79060   1014.7452     -5431.3242     -5229.9842     -100.07656      64341.266      477.43985    
     79070   1009.4511     -5431.0162     -5230.7267     -40.580005      64327.606      477.39068    
     79080   999.78125     -5429.8682     -5231.4972      92.415705      64313.71       477.32269    
     79090   990.28539     -5428.7413     -5232.2545      143.15569      64300.272      477.26622    
     79100   981.60337     -5427.7152     -5232.951       123.2144       64287.63       477.24616    
     79110   984.79031     -5428.9666     -5233.5701     -21.740898      64275.604      477.26205    
     79120   986.25        -5429.8008     -5234.1147     -186.83426      64263.391      477.28535    
     79130   979.95416     -5429.0219     -5234.5849     -225.06101      64250.091      477.28913    
     79140   968.69785     -5427.1615     -5234.958      -136.25174      64235.467      477.28329    
     79150   956.32194     -5424.9434     -5235.1954     -73.751007      64219.967      477.29226    
     79160   954.74602     -5424.7046     -5235.2693     -191.98244      64203.87       477.33355    
     79170   961.88505     -5426.0281     -5235.1763     -324.30613      64186.594      477.41658    
     79180   968.73258     -5427.1523     -5234.9419     -361.91701      64167.385      477.52437    
     79190   971.01499     -5427.2417     -5234.5784     -237.84046      64146.035      477.63877    
     79200   971.81714     -5426.9227     -5234.1003     -4.2619939      64123.261      477.74646    
     79210   978.9173      -5427.739      -5233.5078      168.61659      64100.319      477.8314     
     79220   986.09935     -5428.4725     -5232.8163      291.27277      64078.206      477.89773    
     79230   994.88989     -5429.4602     -5232.0598      412.33122      64057.686      477.96692    
     79240   1002.5173     -5430.1871     -5231.2733      488.08461      64039.45       478.05244    
     79250   1004.4017     -5429.7799     -5230.4922      554.7247       64023.954      478.16177    
     79260   1006.8048     -5429.5031     -5229.7386      629.60263      64011.544      478.29995    
     79270   1000.393      -5427.5153     -5229.023       835.40858      64002.799      478.46281    
     79280   1003.9728     -5427.5508     -5228.3482      939.89482      63998.77       478.64029    
     79290   1006.6942     -5427.4677     -5227.7251      1067.1419      64000.197      478.81234    
     79300   1002.6382     -5426.105      -5227.1672      1192.7419      64007.865      478.96754    
     79310   1010.8818     -5427.2607     -5226.6873      1053.1967      64022.394      479.12761    
     79320   1015.7855     -5427.8423     -5226.2959      824.2194       64043.129      479.31794    
     79330   1015.8573     -5427.5753     -5226.0147      539.75136      64068.766      479.53908    
     79340   1018.687      -5427.9631     -5225.8411      157.57427      64097.702      479.79444    
     79350   1007.1199     -5425.5842     -5225.7572     -151.31322      64127.85       480.0854     
     79360   993.79347     -5422.8922     -5225.7094     -376.01806      64157.425      480.3948     
     79370   989.1201      -5421.9078     -5225.6522     -588.68072      64185.032      480.68857    
     79380   982.97566     -5420.603      -5225.5666     -673.21026      64209.478      480.94584    
     79390   979.64035     -5419.8168     -5225.4421     -680.33109      64230.216      481.17547    
     79400   986.28578     -5420.9766     -5225.2833     -706.39914      64247.098      481.39778    
     79410   989.76327     -5421.4845     -5225.1013     -611.08133      64260.042      481.60653    
     79420   997.84906     -5422.9021     -5224.9146     -493.99885      64269.54       481.78168    
     79430   1011.0234     -5425.3451     -5224.7436     -436.84047      64276.196      481.92786    
     79440   1026.5245     -5428.3129     -5224.6357     -361.09472      64280.358      482.06967    
     79450   1029.1382     -5428.8373     -5224.6415     -195.81471      64282.481      482.21866    
     79460   1014.8163     -5426.0966     -5224.7425      53.927644      64283.532      482.38127    
     79470   1009.6101     -5425.233      -5224.9119      98.855186      64284.783      482.55234    
     79480   1008.2928     -5425.1858     -5225.126       51.335132      64286.577      482.71363    
     79490   1005.8473     -5424.9481     -5225.3736     -49.554263      64288.627      482.84334    
     79500   998.66516     -5423.7883     -5225.6389     -140.54339      64290.432      482.925      
     79510   998.02913     -5423.9297     -5225.9064     -279.65133      64291.403      482.96887    
     79520   997.49526     -5424.0806     -5226.1632     -396.34011      64290.771      483.02424    
     79530   999.46572     -5424.7258     -5226.4175     -543.76783      64287.762      483.10555    
     79540   992.0871      -5423.5144     -5226.6701     -627.99031      64281.513      483.20389    
     79550   981.63192     -5421.6632     -5226.8934     -535.70292      64271.613      483.29787    
     79560   977.64606     -5421.0311     -5227.0521     -400.00644      64258.504      483.35302    
     79570   980.32263     -5421.6394     -5227.1294     -336.65025      64242.899      483.36535    
     79580   978.6388      -5421.3029     -5227.1269     -224.30201      64225.245      483.34748    
     79590   975.55507     -5420.5994     -5227.0353     -67.797991      64206.182      483.31402    
     79600   982.85946     -5421.8577     -5226.8443     -34.702983      64186.511      483.29132    
     79610   991.83445     -5423.3573     -5226.5631      27.528564      64166.555      483.29425    
     79620   1004.687      -5425.5754     -5226.2311      82.441087      64146.633      483.3055     
     79630   1011.6908     -5426.6213     -5225.8874      169.55969      64127.075      483.29579    
     79640   1008.1371     -5425.582      -5225.5532      322.91751      64108.411      483.26387    
     79650   1002.8153     -5424.1908     -5225.2179      478.97496      64091.537      483.23445    
     79660   997.89764     -5422.8647     -5224.8676      602.3667       64077.363      483.23802    
     79670   993.41134     -5421.5797     -5224.4727      711.45576      64066.652      483.26518    
     79680   1000.7831     -5422.5967     -5224.027       588.48014      64059.891      483.28722    
     79690   1002.6009     -5422.4681     -5223.5378      404.48278      64056.5        483.30129    
     79700   1009.1736     -5423.2625     -5223.0279      186.52814      64055.473      483.32391    
     79710   1020.1058     -5424.913      -5222.5094     -138.19311      64055.48       483.36422    
     79720   1015.4965     -5423.5031     -5222.014      -378.75194      64054.754      483.42049    
     79730   1015.9372     -5423.1207     -5221.5442     -641.51326      64051.813      483.47805    
     79740   1019.6459     -5423.4082     -5221.0958     -876.24081      64045.147      483.52715    
     79750   1011.8788     -5421.4453     -5220.6741     -943.602        64033.473      483.56627    
     79760   1005.9766     -5419.8691     -5220.269      -976.01208      64016.264      483.57274    
     79770   1006.27       -5419.5103     -5219.8519     -953.26754      63993.371      483.52591    
     79780   999.9593      -5417.8129     -5219.4066     -696.88268      63965.035      483.43523    
     79790   996.05136     -5416.5388     -5218.908      -346.93336      63932.647      483.33376    
     79800   1000.3693     -5416.8186     -5218.331       43.806423      63898.255      483.24872    
     79810   1012.4714     -5418.5709     -5217.6821      285.10827      63864.024      483.18898    
     79820   1038.5884     -5423.0944     -5217.0236      227.65061      63831.263      483.1609     
     79830   1051.8508     -5425.1528     -5216.4506      214.57065      63799.862      483.15579    
     79840   1048.9444     -5424.171      -5216.0454      269.87426      63769.743      483.14316    
     79850   1038.9801     -5421.9631     -5215.8146      334.43689      63741.219      483.09915    
     79860   1023.9263     -5418.8888     -5215.7272      469.17902      63714.688      483.02902    
     79870   1003.9257     -5414.9224     -5215.7291      664.86334      63690.913      482.95439    
     79880   997.12482     -5413.6077     -5215.7638      762.81738      63670.925      482.89825    
     79890   993.96147     -5413.0067     -5215.7905      801.41085      63655.291      482.87564    
     79900   992.93452     -5412.8053     -5215.7929      842.181        63644.283      482.89473    
     79910   995.04429     -5413.196      -5215.765       907.68148      63638.157      482.93431    
     79920   997.9276      -5413.7161     -5215.7129      961.24701      63637.251      482.97541    
     79930   1002.0996     -5414.4716     -5215.6406      1048.8201      63641.908      483.03966    
     79940   1013.6491     -5416.6989     -5215.5764      1075.629       63652.531      483.13521    
     79950   1014.7282     -5416.8849     -5215.5483      1089.2648      63669.303      483.24802    
     79960   1018.9927     -5417.777      -5215.5942      1026.5073      63692.224      483.39295    
     79970   1013.1548     -5416.7333     -5215.7088      987.64915      63720.953      483.6087     
     79980   1013.3321     -5416.9504     -5215.8908      834.58458      63755.144      483.9171     
     79990   1024.8239     -5419.4886     -5216.1489      546.61652      63793.892      484.29234    
     80000   1031.7309     -5421.2395     -5216.5293      340.77325      63835.63       484.69128    
Loop time of 5173.52 on 1 procs for 30000 steps with 1536 atoms

Performance: 0.501 ns/day, 47.903 hours/ns, 5.799 timesteps/s, 8.907 katom-step/s
99.4% CPU use with 1 MPI tasks x 1 OpenMP threads

MPI task timing breakdown:
Section |  min time  |  avg time  |  max time  |%varavg| %total
---------------------------------------------------------------
Pair    | 5157.2     | 5157.2     | 5157.2     |   0.0 | 99.68
Bond    | 0.015649   | 0.015649   | 0.015649   |   0.0 |  0.00
Neigh   | 5.5471     | 5.5471     | 5.5471     |   0.0 |  0.11
Comm    | 0.67975    | 0.67975    | 0.67975    |   0.0 |  0.01
Output  | 8.0551     | 8.0551     | 8.0551     |   0.0 |  0.16
Modify  | 1.8839     | 1.8839     | 1.8839     |   0.0 |  0.04
Other   |            | 0.182      |            |       |  0.00

Nlocal:           1536 ave        1536 max        1536 min
Histogram: 1 0 0 0 0 0 0 0 0 0
Nghost:           2266 ave        2266 max        2266 min
Histogram: 1 0 0 0 0 0 0 0 0 0
Neighs:              0 ave           0 max           0 min
Histogram: 1 0 0 0 0 0 0 0 0 0
FullNghs:        37216 ave       37216 max       37216 min
Histogram: 1 0 0 0 0 0 0 0 0 0

Total # of neighbors = 37216
Ave neighs/atom = 24.229167
Ave special neighs/atom = 0
Neighbor list builds = 3000
Dangerous builds = 3000
unfix           4

write_data      structure.end.data
System init for write_data ...
write_restart   structure.end
System init for write_restart ...
                    
Total wall time: 1:57:35
