LAMMPS (29 Sep 2021 - Update 3)
OMP_NUM_THREADS environment is not set. Defaulting to 1 thread. (src/comm.cpp:98)
  using 1 OpenMP thread(s) per MPI task
Reading data file ...
  orthogonal box = (0.0000000 0.0000000 0.0000000) to (18.492711 18.368364 83.044081)
  2 by 1 by 8 MPI processor grid
  reading atoms ...
  864 atoms
Finding 1-2 1-3 1-4 neighbors ...
  special bond factors lj:    0        0        0       
  special bond factors coul:  0        0        0       
     0 = max # of 1-2 neighbors
     0 = max # of 1-3 neighbors
     0 = max # of 1-4 neighbors
     1 = max # of special neighbors
  special bonds CPU = 0.001 seconds
  read_data CPU = 0.008 seconds
Neighbor list info ...
  update every 1 steps, delay 10 steps, check yes
  max neighbors/atom: 2000, page size: 100000
  master list distance cutoff = 6.22
  ghost atom cutoff = 6.22
  binsize = 3.11, bins = 6 6 27
  1 neighbor lists, perpetual/occasional/extra = 1 0 0
  (1) pair quip, perpetual
      attributes: full, newton on
      pair build: full/bin
      stencil: full/bin/3d
      bin: standard
Setting up Verlet run ...
  Unit style    : metal
  Current step  : 0
  Time step     : 0.001
Per MPI rank memory allocation (min/avg/max) = 8.888 | 8.895 | 8.900 Mbytes
Step Temp PotEng TotEng Press Volume c_msd[4] 
       0            0   -7973.6696   -7973.6696   -2874.2394    28208.484            0 
      10    41.278351   -7978.2784   -7973.6737   -2959.4518    28208.484 0.00023887099 
      20    117.01377   -7986.7312   -7973.6782   -2971.9336    28208.484 0.0029537371 
      30    174.81925   -7993.1785   -7973.6771   -2824.2466    28208.484  0.010160551 
      40    218.44962    -7998.045   -7973.6766   -2720.6333    28208.484  0.020641735 
      50    256.00476   -8002.2349   -7973.6771   -2700.3711    28208.484  0.032489043 
      60    281.23595   -8005.0509   -7973.6786   -2720.3164    28208.484  0.045481137 
      70    279.84796   -8004.8936   -7973.6762   -2497.2427    28208.484  0.060875411 
      80    275.57271   -8004.4166   -7973.6761   -2346.6282    28208.484  0.078472831 
      90    275.14134   -8004.3684    -7973.676   -2375.5075    28208.484  0.097756432 
     100    277.97329   -8004.6843   -7973.6759   -2450.2098    28208.484   0.11838341 
     110    284.32121   -8005.3929   -7973.6764   -2585.3887    28208.484    0.1397563 
     120    288.42818   -8005.8514   -7973.6768   -2555.7238    28208.484   0.16133553 
     130    287.27066   -8005.7216   -7973.6761   -2379.8786    28208.484   0.18293983 
     140    286.58177   -8005.6454   -7973.6767   -2199.4073    28208.484   0.20440576 
     150    283.09159    -8005.256   -7973.6767   -2058.8623    28208.484   0.22545748 
     160    281.87093     -8005.12   -7973.6769   -2002.9487    28208.484   0.24504756 
     170    281.00839    -8005.024   -7973.6771   -2057.3307    28208.484   0.26222423 
     180    282.68046     -8005.21   -7973.6765   -2118.7926    28208.484   0.27648184 
     190    291.53832   -8006.1995   -7973.6779   -2237.0667    28208.484   0.28923786 
     200    293.64302   -8006.4325   -7973.6762   -2373.3356    28208.484   0.30372277 
     210    298.64228   -8006.9936   -7973.6796   -2435.1957    28208.484   0.32052492 
     220    292.65421   -8006.3221   -7973.6761   -2273.8456    28208.484   0.33666335 
     230    296.18967   -8006.7198   -7973.6794   -2277.4624    28208.484   0.34931106 
     240    282.07352   -8005.1401   -7973.6743   -2198.7147    28208.484   0.36070053 
     250    293.47873    -8006.417    -7973.679   -2346.9356    28208.484   0.37209929 
     260    294.86866   -8006.5718   -7973.6788   -2406.0825    28208.484   0.38456478 
     270    292.66954   -8006.3399   -7973.6921   -2371.6679    28208.484   0.39632792 
     280    288.22645   -8005.8424   -7973.6903   -2343.9303    28208.484   0.40740341 
     290    280.03766   -8004.9272   -7973.6886   -2399.6918    28208.484   0.41930862 
     300    280.42672   -8004.9707   -7973.6886   -2493.7264    28208.484   0.43203295 
     310    287.66524   -8005.7795     -7973.69   -2540.7382    28208.484   0.44617059 
     320    287.59248   -8005.7709   -7973.6895   -2479.6365    28208.484   0.46153129 
     330    287.30367   -8005.7384   -7973.6892   -2430.7941    28208.484   0.47558463 
     340      291.107   -8006.1632   -7973.6897   -2433.3574    28208.484   0.48761679 
     350    290.07985   -8006.0486   -7973.6898   -2407.8749    28208.484   0.49931209 
     360    283.46216   -8005.3096    -7973.689    -2324.857    28208.484   0.51138392 
     370    283.31611   -8005.2933    -7973.689   -2223.9029    28208.484   0.52363749 
     380    293.81781   -8006.4657   -7973.6899   -2201.7975    28208.484   0.53571675 
     390    300.79692   -8007.2454   -7973.6911   -2203.1603    28208.484   0.54763687 
     400    296.63974     -8006.78   -7973.6894   -2207.2978    28208.484   0.55946952 
     410     295.9675   -8006.7055   -7973.6899    -2389.454    28208.484   0.57119336 
     420    296.34311   -8006.7466   -7973.6891   -2528.2941    28208.484   0.58115249 
     430    302.08464   -8007.3879   -7973.6899   -2546.6384    28208.484   0.58802692 
     440    300.89773   -8007.2566    -7973.691   -2408.1467    28208.484   0.59313659 
     450    295.75798   -8006.6815   -7973.6893   -2201.4544    28208.484   0.59704421 
     460    298.71554   -8007.0127   -7973.6905   -2097.6901    28208.484   0.60034051 
     470    293.57038   -8006.4367   -7973.6885   -1853.8963    28208.484   0.60455383 
     480    299.68957   -8007.1205   -7973.6897   -1687.1392    28208.484   0.60898733 
     490    304.28303    -8007.634   -7973.6908   -1569.5251    28208.484   0.61372446 
     500    297.76534   -8006.9049   -7973.6887   -1520.9163    28208.484   0.61909997 
     510     298.0343    -8006.936   -7973.6898   -1578.3555    28208.484     0.624484 
     520    298.51386   -8006.9892   -7973.6895   -1617.2528    28208.484   0.63055005 
     530    299.67651    -8007.119   -7973.6896   -1583.6011    28208.484   0.63765456 
     540    301.93935   -8007.3714   -7973.6896    -1486.536    28208.484   0.64551302 
     550    304.04909   -8007.6074   -7973.6903   -1392.2763    28208.484    0.6536082 
     560    304.32541   -8007.6381   -7973.6901   -1287.1967    28208.484   0.66116979 
     570    303.65289   -8007.5627   -7973.6898   -1155.3607    28208.484   0.66831766 
     580    306.61685   -8007.8931   -7973.6895   -1197.3354    28208.484   0.67540713 
     590    314.13334   -8008.7329   -7973.6909   -1349.2051    28208.484   0.68183493 
     600    314.58012   -8008.7816   -7973.6897   -1383.1623    28208.484   0.68848067 
     610    313.36382   -8008.6461   -7973.6899   -1339.6031    28208.484   0.69624527 
     620     312.9428   -8008.5985   -7973.6893   -1300.0364    28208.484   0.70606469 
     630    317.72028    -8009.132   -7973.6899   -1341.7477    28208.484   0.71807814 
     640    322.57063   -8009.6733   -7973.6901   -1410.5145    28208.484   0.73069429 
     650    323.60168   -8009.7886   -7973.6903   -1540.2113    28208.484   0.74223138 
     660    318.39172   -8009.2068   -7973.6897   -1568.6259    28208.484   0.75263353 
     670    316.27474   -8008.9702   -7973.6892   -1586.0839    28208.484    0.7619451 
     680    320.95534   -8009.4935   -7973.6904   -1558.4885    28208.484   0.77150239 
     690    319.85933   -8009.3708     -7973.69    -1459.468    28208.484   0.78296875 
     700    315.81982   -8008.9199   -7973.6897   -1330.2989    28208.484   0.79605918 
     710    316.18394   -8008.9601   -7973.6893   -1285.6029    28208.484   0.80930055 
     720    321.99795   -8009.6098   -7973.6904   -1374.2337    28208.484   0.82124899 
     730    320.60154   -8009.4538   -7973.6902   -1440.5044    28208.484   0.83277534 
     740    316.58517   -8009.0043   -7973.6888   -1452.0725    28208.484    0.8439361 
     750    321.27163   -8009.5293    -7973.691   -1655.1798    28208.484     0.854338 
     760    314.38368   -8008.7598   -7973.6899   -1838.5562    28208.484   0.86584884 
     770     305.9368   -8007.8166   -7973.6889   -1999.9526    28208.484   0.87941766 
     780    305.71483   -8007.7927   -7973.6897   -2140.7584    28208.484   0.89394007 
     790    305.84031   -8007.8065   -7973.6896   -2209.2571    28208.484   0.90782838 
     800    306.48205   -8007.8784   -7973.6899   -2275.1918    28208.484   0.92026204 
     810    304.33355   -8007.6388   -7973.6899   -2343.4421    28208.484   0.93178116 
     820    297.82924   -8006.9125   -7973.6892   -2314.2529    28208.484    0.9431626 
     830    296.11711   -8006.7216   -7973.6893   -2340.1192    28208.484   0.95457823 
     840    299.50491   -8007.0998   -7973.6896   -2406.4366    28208.484   0.96506277 
     850    304.52466   -8007.6597   -7973.6895   -2460.7845    28208.484   0.97329313 
     860     310.8399   -8008.3649   -7973.6902   -2449.0401    28208.484   0.97916609 
     870    310.67413   -8008.3459   -7973.6897   -2327.6881    28208.484   0.98350092 
     880    309.42712   -8008.2065   -7973.6894   -2225.4629    28208.484   0.98651824 
     890    311.26126   -8008.4116   -7973.6899    -2248.854    28208.484   0.98981853 
     900    313.26109   -8008.6341   -7973.6893   -2271.1415    28208.484     0.995508 
     910    320.18937   -8009.4082   -7973.6906   -2399.0494    28208.484    1.0049166 
     920    319.06768   -8009.2826   -7973.6901    -2517.896    28208.484    1.0179539 
     930    311.48412   -8008.4358   -7973.6893   -2630.8665    28208.484    1.0322955 
     940    307.33364   -8007.9728   -7973.6893   -2692.4224    28208.484    1.0452919 
     950    306.79072   -8007.9125   -7973.6895   -2690.0291    28208.484    1.0559933 
     960    307.40028   -8007.9805   -7973.6895    -2685.778    28208.484    1.0648912 
     970    308.12458   -8008.0613   -7973.6895   -2650.3957    28208.484    1.0729687 
     980    308.40186   -8008.0924   -7973.6897   -2580.8757    28208.484    1.0808973 
     990    307.35297   -8007.9752   -7973.6895    -2481.356    28208.484    1.0887898 
    1000    307.21435     -8007.96   -7973.6898   -2353.6684    28208.484    1.0961224 
    1010    306.76152   -8007.9091   -7973.6894   -2248.7956    28208.484    1.1027335 
    1020    309.26646    -8008.189   -7973.6898   -2286.0041    28208.484    1.1099454 
    1030    310.25342   -8008.2989   -7973.6897   -2305.1256    28208.484    1.1183111 
    1040    307.62812   -8008.0062   -7973.6898    -2294.831    28208.484    1.1271276 
    1050    300.85261   -8007.2498   -7973.6892   -2274.7356    28208.484    1.1353455 
    1060    298.03491   -8006.9356   -7973.6894   -2274.0022    28208.484    1.1412949 
    1070     298.1827   -8006.9525   -7973.6898   -2240.2755    28208.484    1.1449307 
    1080    298.32389   -8006.9674   -7973.6889   -2186.0158    28208.484    1.1478628 
    1090    304.12167   -8007.6156   -7973.6903   -2224.5843    28208.484    1.1507358 
    1100    303.21342   -8007.5135   -7973.6896   -2273.1413    28208.484    1.1542182 
    1110    302.55349   -8007.4391   -7973.6888   -2350.8777    28208.484    1.1583885 
    1120    311.89752   -8008.4827   -7973.6901   -2437.4889    28208.484     1.162828 
    1130    317.78566     -8009.14   -7973.6905   -2446.8483    28208.484     1.167408 
    1140    311.56568   -8008.4454   -7973.6898   -2410.0182    28208.484    1.1717043 
    1150    303.07264   -8007.4971   -7973.6889   -2380.3816    28208.484    1.1751291 
    1160    303.70308   -8007.5677   -7973.6892    -2470.872    28208.484    1.1775178 
    1170    310.51899   -8008.3284   -7973.6895   -2617.7569    28208.484    1.1788381 
    1180    316.91994   -8009.0426   -7973.6898   -2682.3818    28208.484    1.1790698 
    1190    320.34041   -8009.4241   -7973.6896   -2666.8258    28208.484    1.1789053 
    1200    321.06279   -8009.5055   -7973.6905   -2603.0061    28208.484    1.1796194 
    1210    314.26027   -8008.7456   -7973.6894   -2485.4053    28208.484    1.1821764 
    1220    309.32884    -8008.196   -7973.6899    -2464.998    28208.484    1.1865082 
    1230    306.19371   -8007.8458   -7973.6895   -2530.8384    28208.484    1.1911967 
    1240    306.63151   -8007.8948   -7973.6896   -2616.4378    28208.484    1.1944331 
    1250    309.06475   -8008.1663   -7973.6897   -2607.8093    28208.484    1.1957913 
    1260    312.48643   -8008.5482   -7973.6898    -2462.899    28208.484    1.1957707 
    1270    312.94072   -8008.5995   -7973.6905   -2234.5909    28208.484    1.1949586 
    1280    309.44145   -8008.2076   -7973.6889   -2027.1289    28208.484    1.1941489 
    1290    314.87458   -8008.8149   -7973.6902   -1974.2087    28208.484    1.1943163 
    1300    319.36818   -8009.3159   -7973.6899   -1982.4404    28208.484     1.195877 
    1310    321.84143   -8009.5922   -7973.6903   -1943.5386    28208.484    1.1987306 
    1320    321.73486     -8009.58     -7973.69    -1845.706    28208.484    1.2036004 
    1330    320.53672   -8009.4466   -7973.6902   -1700.8294    28208.484    1.2106875 
    1340    314.45984   -8008.7682   -7973.6898   -1509.1942    28208.484    1.2186301 
    1350    308.88407   -8008.1459   -7973.6894   -1443.5528    28208.484    1.2257175 
    1360    308.85021   -8008.1421   -7973.6894   -1546.3935    28208.484    1.2310073 
    1370    314.64585   -8008.7893   -7973.6901   -1721.3694    28208.484     1.234708 
    1380    316.29012   -8008.9734   -7973.6908   -1817.9195    28208.484    1.2377498 
    1390    307.32275   -8007.9718   -7973.6895   -1803.5548    28208.484    1.2409119 
    1400    301.76471   -8007.3515   -7973.6892   -1859.1426    28208.484    1.2443267 
    1410    303.86241   -8007.5861   -7973.6897   -1936.9087    28208.484    1.2481193 
    1420    306.88628   -8007.9231   -7973.6894   -1917.1497    28208.484    1.2526965 
    1430    311.21927   -8008.4068   -7973.6898   -1887.7633    28208.484    1.2583105 
    1440    313.42496   -8008.6528   -7973.6898   -1851.4527    28208.484    1.2642026 
    1450     313.3569   -8008.6451   -7973.6897   -1798.7574    28208.484     1.269636 
    1460    313.21275   -8008.6295   -7973.6901   -1825.1156    28208.484    1.2754342 
    1470    309.64761   -8008.2313   -7973.6896   -1804.0626    28208.484    1.2823313 
    1480    309.40126   -8008.2029   -7973.6887   -1783.0935    28208.484    1.2890305 
    1490    320.42565   -8009.4341   -7973.6901   -1893.3186    28208.484    1.2938055 
    1500    328.10175   -8010.2905   -7973.6903   -1974.4184    28208.484    1.2976917 
    1510    327.81197   -8010.2577   -7973.6898    -1937.058    28208.484    1.3022885 
    1520     324.2243   -8009.8576   -7973.6899   -1828.5619    28208.484    1.3070588 
    1530    318.99753   -8009.2739   -7973.6893   -1744.3097    28208.484    1.3111416 
    1540    315.99968   -8008.9401   -7973.6899   -1679.5222    28208.484    1.3147163 
    1550    311.82694   -8008.4737   -7973.6889   -1676.3191    28208.484     1.318865 
    1560    315.99733   -8008.9396   -7973.6896   -1782.1266    28208.484    1.3245612 
    1570    321.70035   -8009.5765   -7973.6904   -1943.6277    28208.484    1.3315419 
    1580    318.91113   -8009.2648   -7973.6898   -1980.5418    28208.484     1.338424 
    1590    316.40503   -8008.9842   -7973.6888   -1871.1257    28208.484    1.3448929 
    1600    323.69059   -8009.7984   -7973.6903   -1863.2593    28208.484    1.3517889 
    1610    324.55521    -8009.895   -7973.6903   -1926.3043    28208.484    1.3589892 
    1620    317.22283   -8009.0757    -7973.689    -2033.451    28208.484    1.3640281 
    1630    315.56944   -8008.8917   -7973.6895   -2189.5743    28208.484    1.3650114 
    1640          316   -8008.9396   -7973.6894   -2246.5115    28208.484     1.363698 
    1650     317.3618   -8009.0917   -7973.6895   -2167.3771    28208.484    1.3628757 
    1660    317.92845   -8009.1553   -7973.6899   -2101.0814    28208.484    1.3639966 
    1670    314.61233   -8008.7852   -7973.6897   -2010.9785    28208.484    1.3669961 
    1680    312.18324   -8008.5133   -7973.6888   -2055.2147    28208.484     1.371293 
    1690    317.45918   -8009.1028   -7973.6897    -2191.224    28208.484    1.3761955 
    1700    321.08797   -8009.5076   -7973.6898   -2266.1824    28208.484    1.3813209 
    1710    322.36089   -8009.6492   -7973.6893   -2262.0514    28208.484    1.3861808 
    1720    325.18317   -8009.9643   -7973.6896   -2258.3202    28208.484    1.3904451 
    1730    326.15411   -8010.0728   -7973.6898    -2317.316    28208.484     1.394947 
    1740     323.8725   -8009.8181   -7973.6896   -2287.8062    28208.484    1.4007384 
    1750    320.41839   -8009.4325   -7973.6894   -2200.4994    28208.484    1.4075406 
    1760     319.2517   -8009.3028   -7973.6898   -2148.7833    28208.484     1.414045 
    1770    317.70647   -8009.1306     -7973.69    -2060.265    28208.484    1.4199919 
    1780    313.91842   -8008.7076   -7973.6895   -1900.1987    28208.484    1.4259827 
    1790    313.00692   -8008.6058   -7973.6894   -1752.6987    28208.484    1.4322179 
    1800     316.3606   -8008.9805     -7973.69   -1656.4741    28208.484    1.4376798 
    1810    317.06323    -8009.059   -7973.6901   -1611.9912    28208.484    1.4414287 
    1820    314.75826    -8008.801   -7973.6892    -1594.078    28208.484    1.4434919 
    1830    319.39788   -8009.3191   -7973.6898   -1580.2478    28208.484    1.4448335 
    1840    326.94741   -8010.1618   -7973.6903   -1586.0007    28208.484    1.4478206 
    1850     328.2751   -8010.3099   -7973.6903   -1510.9657    28208.484    1.4534245 
    1860    325.54844   -8010.0044    -7973.689   -1434.8489    28208.484    1.4597334 
    1870    330.22766   -8010.5276   -7973.6902   -1485.8246    28208.484    1.4649668 
    1880    331.47708   -8010.6665   -7973.6897   -1548.2944    28208.484    1.4702024 
    1890    330.21474   -8010.5256   -7973.6896   -1516.0861    28208.484    1.4764703 
    1900    331.58833   -8010.6782    -7973.689   -1442.8287    28208.484    1.4834549 
    1910    337.92691   -8011.3872    -7973.691   -1475.0881    28208.484    1.4904186 
    1920     332.3277   -8010.7614   -7973.6897   -1417.3686    28208.484    1.4973123 
    1930    326.40875   -8010.1005   -7973.6891    -1294.946    28208.484    1.5028962 
    1940    327.61985   -8010.2367   -7973.6902   -1344.4187    28208.484    1.5071937 
    1950    326.33555   -8010.0933   -7973.6901   -1454.2005    28208.484    1.5117741 
    1960    320.98412   -8009.4961   -7973.6898    -1539.947    28208.484    1.5179832 
    1970    316.38994    -8008.983   -7973.6892   -1494.5471    28208.484    1.5266599 
    1980    318.66568   -8009.2379   -7973.6903    -1430.619    28208.484     1.537506 
    1990    319.09324   -8009.2848   -7973.6895   -1383.3475    28208.484     1.548395 
    2000    324.20331   -8009.8559   -7973.6905   -1553.3118    28208.484     1.556546 
Loop time of 1550.84 on 16 procs for 2000 steps with 864 atoms

Performance: 0.111 ns/day, 215.394 hours/ns, 1.290 timesteps/s
98.2% CPU use with 16 MPI tasks x 1 OpenMP threads

MPI task timing breakdown:
Section |  min time  |  avg time  |  max time  |%varavg| %total
---------------------------------------------------------------
Pair    | 1170.9     | 1395.5     | 1532       | 285.1 | 89.98
Bond    | 0.00019956 | 0.00051986 | 0.0012522  |   0.0 |  0.00
Neigh   | 0.020411   | 0.024193   | 0.028433   |   1.7 |  0.00
Comm    | 18.392     | 150.78     | 378.44     | 855.4 |  9.72
Output  | 0.3294     | 4.4422     | 12.6       | 192.4 |  0.29
Modify  | 0.010124   | 0.011603   | 0.016484   |   1.5 |  0.00
Other   |            | 0.06611    |            |       |  0.00

Nlocal:        54.0000 ave          63 max          48 min
Histogram: 5 0 1 2 2 1 1 2 0 2
Nghost:        409.688 ave         449 max         386 min
Histogram: 3 3 1 3 2 1 1 0 0 2
Neighs:         0.00000 ave           0 max           0 min
Histogram: 16 0 0 0 0 0 0 0 0 0
FullNghs:      1604.62 ave        2106 max        1301 min
Histogram: 5 0 2 2 2 0 2 1 1 1

Total # of neighbors = 25674
Ave neighs/atom = 29.715278
Ave special neighs/atom = 0.0000000
Neighbor list builds = 199
Dangerous builds = 198
Setting up Verlet run ...
  Unit style    : metal
  Current step  : 2000
  Time step     : 0.001
Per MPI rank memory allocation (min/avg/max) = 8.893 | 8.897 | 8.900 Mbytes
Step Temp PotEng TotEng Press Volume c_msd[4] 
    2000          900   -8009.8559   -7909.4595    878.80224    28208.484     1.556546 
    2010     841.0336   -8003.2599   -7909.4414    1187.8948    28209.535    1.5606107 
    2020    747.31357    -7992.674   -7909.3101     1663.204    28213.256    1.5697602 
    2030     681.8771   -7984.9984    -7908.934    2079.9598    28220.666    1.5802827 
    2040     638.5887   -7979.4744   -7908.2389    2404.0312    28232.702    1.5931976 
    2050    615.08489   -7975.8482   -7907.2345    2440.2268    28250.065    1.6107059 
    2060    609.97579   -7974.0891   -7906.0454    2216.0881    28272.868    1.6331744 
    2070    610.76459   -7973.0134   -7904.8817    1751.5507    28300.634    1.6588401 
    2080    620.95753      -7973.1   -7903.8312    1009.4921    28332.332    1.6853351 
    2090    617.59059   -7971.7143   -7902.8211    484.87187    28366.424    1.7123445 
    2100    606.55247   -7969.4316   -7901.7697    237.90647    28401.736    1.7401268 
    2110    597.50601   -7967.2679   -7900.6152    287.57168    28437.724     1.767165 
    2120    600.03447    -7966.282   -7899.3473    429.38635    28474.452    1.7919531 
    2130    602.23097   -7965.1678    -7897.988    498.12012    28512.207     1.814764 
    2140    608.88759   -7964.4993    -7896.577    326.97328    28551.111    1.8343451 
    2150    636.61543   -7966.1118   -7895.0964   -108.33136    28590.763     1.849569 
    2160    661.09258   -7967.2906   -7893.5447   -382.40457    28630.249    1.8630649 
    2170     675.0198   -7967.2608   -7891.9613    -559.3796    28668.912    1.8780373 
    2180    684.25671   -7966.6895   -7890.3596   -661.60862    28706.324    1.8960044 
    2190    685.39236   -7965.2012   -7888.7447   -680.26333     28742.23    1.9161714 
    2200    688.03872   -7963.8676   -7887.1158   -724.20617    28776.554    1.9360221 
    2210    687.55011   -7962.1619   -7885.4647   -825.64339    28809.163     1.954232 
    2220    681.08662   -7959.7778   -7883.8016   -770.79487    28839.867    1.9697062 
    2230    679.96355    -7957.978    -7882.127   -788.76562    28868.724    1.9815428 
    2240    683.23039   -7956.6464    -7880.431   -813.54623    28895.705    1.9916031 
    2250    696.21184   -7956.3732   -7878.7097   -747.33108    28920.759    2.0025801 
    2260    711.12237   -7956.2912   -7876.9644    -606.9249    28944.052    2.0157855 
    2270    729.23671   -7956.5514    -7875.204   -638.99879    28965.845    2.0319791 
    2280    731.78861   -7955.0742    -7873.442   -646.02833    28986.106    2.0525547 
    2290    739.24527   -7954.1612   -7871.6972     -673.073    29004.808    2.0770808 
    2300    752.54382   -7953.8871   -7869.9397   -443.68513    29021.964    2.1039212 
    2310     754.7768   -7952.3867   -7868.1902    7.4572027    29038.102    2.1313344 
    2320    762.16884   -7951.4699   -7866.4488    129.79058     29054.16     2.156182 
    2330    781.11232   -7951.8325   -7864.6983    49.798467    29070.462    2.1768929 
    2340    790.88161   -7951.1729   -7862.9489     165.1876    29086.924    2.1949651 
    2350    801.35282    -7950.618   -7861.2259    157.31123    29103.731    2.2113205 
    2360    810.21012   -7949.9015   -7859.5213    -24.21821    29120.858    2.2273326 
    2370    802.65033   -7947.3881   -7857.8512   -140.58906    29137.939     2.246792 
    2380    805.84048    -7946.098   -7856.2053   -339.26316    29154.659    2.2710678 
    2390    809.36294   -7944.8424   -7854.5568   -413.29505    29170.602     2.299133 
    2400    815.50473   -7943.8884   -7852.9176   -290.74134      29185.6    2.3301476 
    2410    816.62072   -7942.3871   -7851.2919   -180.29667    29199.903    2.3628681 
    2420    823.45832   -7941.5329   -7849.6749   -209.30687    29213.734    2.3952771 
    2430    831.24327   -7940.7939   -7848.0674    -264.5568    29227.079    2.4252898 
    2440    846.98724   -7940.9515   -7846.4688    -317.4983    29239.807    2.4516496 
    2450    850.94112   -7939.8196   -7844.8958   -157.75567    29251.826    2.4762819 
    2460    843.01262   -7937.4114   -7843.3721    147.52548    29263.514    2.5010604 
    2470    849.41479   -7936.6334   -7841.8799    242.90695    29275.518    2.5270846 
    2480    843.37792   -7934.4838   -7840.4037    252.78344    29288.118    2.5563618 
    2490    847.29068   -7933.4659   -7838.9493    141.60845    29301.316    2.5892277 
    2500    866.95258    -7934.201   -7837.4911    73.659229    29314.891    2.6237791 
    2510    891.74012   -7935.5185   -7836.0435    249.22146    29328.726    2.6577896 
    2520    910.68278   -7936.2422   -7834.6541    350.42023    29343.169      2.69029 
    2530    922.52977   -7936.2673   -7833.3577    346.04816    29358.479    2.7214605 
    2540     935.6953   -7936.5468   -7832.1686    250.32667    29374.626    2.7533367 
    2550    932.14179    -7935.082   -7831.1002     436.7732    29391.491    2.7884155 
    2560    912.31212   -7931.9206   -7830.1508    758.48439    29409.496    2.8257203 
    2570    901.55674     -7929.85     -7829.28    804.06822    29429.338    2.8628399 
    2580    910.66886   -7930.0137   -7828.4272    515.79659    29451.107    2.8980138 
    2590    927.55957    -7931.068   -7827.5973    249.02105    29474.188    2.9305639 
    2600    935.07927   -7931.1402   -7826.8307    143.16875    29497.978    2.9616357 
    2610    919.64996   -7928.7382   -7826.1499     21.64942    29522.171    2.9954176 
    2620    920.53654   -7928.2248   -7825.5376   -369.97374    29546.417    3.0335628 
    2630    919.77259   -7927.5673   -7824.9653   -770.52143    29569.827    3.0766053 
    2640    915.95696   -7926.6197   -7824.4433   -976.89048    29591.454    3.1251906 
    2650    908.19264   -7925.2713   -7823.9611   -1213.8109    29610.734    3.1753226 
    2660    902.75556   -7924.2085   -7823.5047   -1354.4566    29627.129    3.2216927 
    2670    901.93896   -7923.6714   -7823.0588   -1262.7009    29640.308    3.2615481 
    2680    921.73189   -7925.4454   -7822.6248   -1295.7709    29650.399     3.294374 
    2690    952.53394   -7928.4932   -7822.2366   -1487.3441    29657.299    3.3216065 
    2700    953.82787   -7928.3583   -7821.9574   -1370.2587    29660.635    3.3464461 
    2710    941.47153   -7926.8336    -7821.811   -966.35835    29660.667    3.3701639 
    2720    922.49153   -7924.6678   -7821.7625   -554.86691    29658.318    3.3931061 
    2730    915.23589    -7923.865   -7821.7691   -270.34261    29654.573    3.4175309 
    2740    918.29922   -7924.2518   -7821.8142   -168.78841    29650.106    3.4474044 
    2750     902.4725   -7922.5606   -7821.8884   -117.46145    29645.218    3.4821532 
    2760    896.16605   -7921.9387     -7821.97   -357.61756     29639.96    3.5166796 
    2770     910.3674    -7923.607   -7822.0541   -777.00273    29633.762    3.5477765 
    2780    917.32383   -7924.4893   -7822.1604   -1178.1755    29625.642    3.5769851 
    2790    919.28468   -7924.8522   -7822.3046   -1299.8931    29614.667    3.6064568 
    2800    927.82074   -7925.9988    -7822.499   -1073.2977    29600.527    3.6384522 
    2810    926.71657     -7926.13   -7822.7533   -622.24572    29583.743    3.6730352 
    2820    916.69551   -7925.3186   -7823.0599   -277.11385    29565.352    3.7044901 
    2830    906.72106   -7924.5504   -7823.4043   -163.47261    29546.146     3.729157 
    2840    885.71508   -7922.5524   -7823.7496     24.81245    29526.477    3.7478035 
    2850    884.48137   -7922.7313    -7824.066   -47.569058    29506.715    3.7612711 
    2860    891.30842   -7923.7815   -7824.3547   -129.90191    29486.741    3.7723045 
    2870    895.47478   -7924.5178   -7824.6263   -139.81114    29466.352     3.784417 
    2880     893.5636   -7924.5707   -7824.8924    10.357117    29445.539    3.8007708 
    2890    880.72529   -7923.3768   -7825.1305    483.64166     29424.71    3.8225627 
    2900    896.76295   -7925.3726   -7825.3373    750.75952    29404.875     3.846004 
    2910    908.01901   -7926.8279    -7825.537    821.62701    29386.695    3.8673474 
    2920    907.64763   -7927.0057   -7825.7563    720.48354    29370.335    3.8839926 
    2930    902.61739   -7926.6774   -7825.9891    775.64557    29355.659    3.8936347 
    2940    905.55327   -7927.2455   -7826.2297     936.9746    29342.779    3.8958176 
    2950    918.53932   -7928.9526   -7826.4882    970.25941    29332.029    3.8944627 
    2960    919.43563   -7929.3556   -7826.7912    1042.6021    29323.548    3.8962144 
    2970      907.677   -7928.3835   -7827.1307    1163.3523    29317.546     3.905499 
    2980    917.76058   -7929.8832   -7827.5056    961.87383    29314.229    3.9217217 
    2990    910.97189   -7929.5386   -7827.9183    888.28893    29313.247    3.9426596 
    3000    893.38784   -7928.0091   -7828.3504    851.11612    29314.413    3.9630865 
    3010    879.39579   -7926.8582   -7828.7603    720.84347    29317.629    3.9803628 
    3020    886.43521   -7928.0156   -7829.1324    590.60342    29322.627    3.9957052 
    3030     897.4974   -7929.5958   -7829.4787    470.99511    29329.123    4.0098777 
    3040    895.88533   -7929.7544   -7829.8171    432.07638    29336.868    4.0241696 
    3050    884.16203   -7928.7716    -7830.142    388.01503     29345.76    4.0407933 
    3060    865.60758   -7926.9831   -7830.4233    442.01487    29355.749    4.0618279 
    3070    852.13303   -7925.6849   -7830.6282    414.33855    29366.925    4.0858372 
    3080      838.106    -7924.217   -7830.7251    358.90443    29379.254    4.1095621 
    3090    843.14818   -7924.7548   -7830.7003    215.41777    29392.619    4.1302799 
    3100    851.30827   -7925.5212   -7830.5565    90.818064    29406.709    4.1504783 
    3110    852.23227    -7925.373   -7830.3052    134.89413    29421.265    4.1738003 
    3120    858.70437   -7925.7449   -7829.9551    199.95733    29436.362    4.2024626 
    3130    859.12261   -7925.3442   -7829.5078    318.70071    29452.205    4.2360625 
    3140    887.74595   -7928.0098   -7828.9804    212.52411    29469.015    4.2690061 
    3150    908.46499   -7929.7454   -7828.4048    152.08208    29486.643    4.2977152 
    3160     914.3166   -7929.8332   -7827.8398    132.72488    29504.959    4.3214783 
    3170    922.25965   -7930.1896   -7827.3102     199.0936    29523.929    4.3420502 
    3180    928.63327   -7930.4229   -7826.8324    266.68395    29543.698     4.364147 
    3190    929.32157   -7930.0924   -7826.4252    255.82075    29564.455    4.3899762 
    3200    911.03214   -7927.7056   -7826.0786    222.62135    29586.214    4.4196822 
    3210    899.85527   -7926.1495   -7825.7693    200.87991    29608.926    4.4525304 
    3220    888.79692    -7924.607   -7825.4604   -31.632599      29632.5    4.4865696 
    3230    879.35199   -7923.2206   -7825.1275   -311.73624    29656.429    4.5185447 
    3240    863.40416   -7921.0577   -7824.7436   -296.36059    29680.101    4.5484396 
    3250    864.24403   -7920.6969   -7824.2892   -290.13704     29703.47    4.5791624 
    3260    881.20311   -7922.0553   -7823.7558    -405.9646    29726.541    4.6132641 
    3270    902.04162   -7923.7972   -7823.1731   -831.47064    29748.981    4.6508044 
    3280    919.34614   -7925.1335    -7822.579   -1368.2593    29769.777    4.6882108 
    3290    922.77099   -7924.9604   -7822.0239   -1576.6575    29787.631     4.720254 
    3300    923.28076   -7924.5187   -7821.5254   -1441.9572    29801.973    4.7458515 
    3310    935.70889   -7925.4678   -7821.0881   -1273.9669    29813.003    4.7669419 
    3320    949.21327   -7926.6187   -7820.7325   -1101.5318    29821.067    4.7868016 
    3330    948.18981   -7926.2602   -7820.4882   -896.05739     29826.54    4.8096892 
    3340    926.62931   -7923.7225   -7820.3556   -674.96497    29829.876     4.835345 
    3350    896.38827   -7920.2738   -7820.2804   -403.03659    29831.618    4.8595068 
    3360    906.64766   -7921.3585   -7820.2206   -471.41298    29832.296    4.8767723 
    3370    913.30045   -7922.0498   -7820.1697    -379.3576     29831.85    4.8859125 
    3380    906.74389   -7921.2961   -7820.1475   -124.83211    29830.476    4.8898183 
    3390    906.33928   -7921.2502   -7820.1467    46.971214     29828.74    4.8937597 
    3400    918.31089    -7922.608    -7820.169    75.388446    29827.061     4.902604 
    3410     924.5738   -7923.3729   -7820.2353   -2.8187173    29825.512    4.9168974 
    3420    914.16565   -7922.3264   -7820.3499    101.62245    29823.981    4.9352159 
    3430    903.06634   -7921.2263   -7820.4879    185.15191    29822.674    4.9564803 
    3440    913.77588   -7922.5751   -7820.6421    55.587556    29821.753    4.9809673 
    3450    912.93178   -7922.6562   -7820.8173    145.63636    29821.013    5.0077669 
    3460    905.52142   -7922.0287   -7821.0164    294.99687    29820.642    5.0351415 
    3470    917.96137   -7923.6433   -7821.2434    152.29046    29820.954    5.0646784 
    3480    920.10361   -7924.1496   -7821.5106   -215.45377    29821.607    5.0961624 
    3490    909.64916   -7923.2934   -7821.8207   -361.92312    29821.805    5.1242968 
    3500    905.49716    -7923.162   -7822.1524   -426.28337    29821.111    5.1479488 
    3510    908.77528   -7923.8736   -7822.4983   -303.12742    29819.376    5.1681328 
    3520    912.80557   -7924.6917   -7822.8669    28.605385    29816.887    5.1852982 
    3530    911.83504   -7924.9827   -7823.2661    328.97553    29814.407    5.2022762 
    3540    906.87487   -7924.8609   -7823.6976    332.60241    29812.639     5.222133 
    3550    899.06586    -7924.433   -7824.1408    205.51922    29811.646    5.2452209 
    3560    889.40341   -7923.7933    -7824.579    161.28211    29811.166    5.2691898 
    3570    881.57005   -7923.3159   -7824.9755    382.39885    29811.156    5.2908824 
    3580    893.91105   -7925.0546   -7825.3375    516.05991    29812.079    5.3062737 
    3590    890.86781   -7925.0503   -7825.6727    387.58403    29814.278    5.3142751 
    3600    892.48098   -7925.5503   -7825.9927   -18.357463    29817.461    5.3174976 
    3610    887.21912   -7925.2574   -7826.2868   -483.55789    29820.673    5.3222419 
    3620    879.24287   -7924.6358   -7826.5549    -755.4647    29822.794    5.3324348 
    3630    860.57607   -7922.7693   -7826.7708   -827.60587    29823.109    5.3493755 
    3640    856.93576   -7922.5062   -7826.9137   -770.69834    29821.389    5.3704548 
    3650    860.94852   -7923.0112   -7826.9711   -700.81876    29817.695    5.3909383 
    3660    867.99843   -7923.7762   -7826.9497   -549.43077    29812.186    5.4088428 
    3670    875.54962   -7924.5255   -7826.8567   -420.41263    29805.173    5.4257586 
    3680    881.34738   -7925.0239   -7826.7083   -382.77431    29796.933    5.4429084 
    3690    883.48401   -7925.0687   -7826.5148   -421.66996    29787.538    5.4580618 
    3700    888.91497   -7925.4445   -7826.2847   -473.50182    29776.888    5.4680096 
    3710    889.12765   -7925.2126   -7826.0291   -541.30263    29764.805     5.472589 
    3720    867.87345   -7922.5559   -7825.7433   -425.15034    29751.142    5.4749433 
    3730    851.40829   -7920.3751   -7825.3992   -201.31114    29736.147    5.4767979 
    3740    847.90626   -7919.5407   -7824.9555   -255.30419    29720.252    5.4816197 
    3750     859.0746   -7920.2416   -7824.4105   -656.21694    29703.292    5.4927653 
    3760    869.17214   -7920.7312   -7823.7738   -944.20172    29684.351    5.5097635 
    3770     884.8007   -7921.7793   -7823.0785   -823.04028    29662.738    5.5306785 
    3780    897.94239    -7922.524   -7822.3572   -540.10838     29638.66    5.5520153 
    3790    905.54673   -7922.6645   -7821.6494   -441.00653    29612.683    5.5725637 
    3800    922.36867   -7923.8748   -7820.9832   -544.78471    29585.015    5.5940727 
    3810    924.12608   -7923.4649   -7820.3772     -532.959     29555.46    5.6166935 
    3820    923.45876   -7922.8639   -7819.8507   -388.13416    29524.022    5.6391437 
    3830    923.36911   -7922.3892   -7819.3859   -257.14776    29491.022    5.6615919 
    3840    935.84492   -7923.3849     -7818.99   -365.45088    29456.693    5.6843341 
    3850    934.44687   -7922.9099   -7818.6709   -140.88408    29420.944    5.7082758 
    3860    915.60415    -7920.561    -7818.424    177.25469    29384.229    5.7343551 
    3870     894.7749   -7918.0246   -7818.2111    425.95561    29347.309    5.7624297 
    3880    873.39677   -7915.4069   -7817.9781    718.11499    29310.846    5.7907154 
    3890    877.74488   -7915.6088   -7817.6951    942.30391    29275.532    5.8148976 
    3900    893.69889   -7917.0498   -7817.3563    1048.1017    29241.943    5.8338607 
    3910    905.11136    -7917.961   -7816.9945    1082.4542    29210.363    5.8496258 
    3920    910.38125   -7918.1889   -7816.6345    1014.3241    29180.904    5.8649014 
    3930    920.02813    -7918.936   -7816.3055     798.4225    29153.413    5.8818408 
    3940    915.52593   -7918.1433    -7816.015    882.94414    29127.521     5.901026 
    3950    909.53219   -7917.2155   -7815.7558    1197.0392    29103.426    5.9239819 
    3960     917.0189   -7917.8103   -7815.5154    1422.4606    29081.845    5.9529009 
    3970    931.26499    -7919.189    -7815.305    1578.0495     29063.38    5.9856506 
    3980    938.53403   -7919.8536   -7815.1587    1683.4131    29048.426    6.0184086 
    3990    938.39869   -7919.7793   -7815.0995    1606.9259    29037.238    6.0474642 
    4000    926.59683   -7918.4948   -7815.1315    1486.1538    29029.701    6.0741871 
    4010    915.70755   -7917.3817   -7815.2331    1303.5576    29025.582    6.1000369 
    4020    915.59335   -7917.5188    -7815.383    839.86704    29024.438    6.1239565 
    4030    911.07448   -7917.2047    -7815.573    584.50577     29025.33    6.1477724 
    4040    898.23278   -7915.9828   -7815.7836    627.80769    29027.697    6.1739141 
    4050      911.624   -7917.7038   -7816.0108    398.41436    29031.519    6.2026311 
    4060    922.59163   -7919.1896   -7816.2731    180.52604     29036.34    6.2329892 
    4070    913.03917   -7918.4428   -7816.5919    275.70951    29041.728    6.2651042 
    4080    895.10318   -7916.7933   -7816.9432    396.48881    29047.859    6.2985861 
    4090     896.0415   -7917.2511   -7817.2963    295.15321    29054.966    6.3299007 
    4100    916.61756    -7919.915   -7817.6649    103.34308    29062.844    6.3589637 
    4110    918.61806   -7920.5512    -7818.078    127.79415    29071.125    6.3917417 
    4120    903.54267    -7919.321   -7818.5294    168.31107    29079.813    6.4303693 
    4130    901.81145   -7919.5878   -7818.9894    4.2106986     29088.98    6.4717534 
    4140     919.2456   -7922.0132     -7819.47   -239.84225    29098.275    6.5141891 
    4150    912.40977   -7921.7644   -7819.9837   -4.3552001    29107.237    6.5551146 
    4160    903.42916   -7921.2989     -7820.52     271.0702    29116.313    6.5904224 
    4170    904.61335   -7921.9783   -7821.0673    293.06916      29126.1    6.6223633 
    4180    891.40396   -7921.0434    -7821.606    189.27617    29136.676    6.6572921 
    4190    898.94058   -7922.4031    -7822.125   -199.58658    29147.754    6.6963076 
    4200    900.11053   -7923.0272   -7822.6185    -482.3935    29158.516    6.7351689 
    4210     886.7725   -7922.0128    -7823.092   -419.88498    29168.327    6.7694707 
    4220    861.15685   -7919.5692   -7823.5058   -108.72568    29177.301    6.7985999 
    4230    850.55565    -7918.701   -7823.8203    186.75704    29186.127    6.8248231 
    4240    866.26742   -7920.6689   -7824.0355    306.20994    29195.453    6.8520542 
    4250    880.26531   -7922.3733   -7824.1783    466.16813    29205.623    6.8835486 
    4260    884.86073   -7922.9837   -7824.2761    522.78954    29216.984    6.9186488 
    4270    889.73686   -7923.5979   -7824.3464    438.16042    29229.679    6.9551969 
    4280    886.38983   -7923.2729   -7824.3948    267.20782    29243.532    6.9954953 
    4290    880.18173   -7922.6059   -7824.4203    99.802283    29258.162    7.0402012 
    4300    862.87339   -7920.6503   -7824.3955    193.45942    29273.232     7.086722 
    4310    861.94658   -7920.4453   -7824.2939    446.16416    29288.927    7.1318236 
    4320     880.4945   -7922.3237   -7824.1032    592.55872    29305.799    7.1735641 
    4330    895.63729   -7923.7593   -7823.8496    614.16862    29324.208      7.21391 
    4340    903.28984   -7924.3273   -7823.5639     543.2526    29344.208    7.2567244 
    4350    916.01257   -7925.4406   -7823.2581    311.10865      29365.6     7.301918 
    4360    915.96148     -7925.12   -7822.9431    228.41716    29387.881    7.3473117 
    4370    905.00994   -7923.5793   -7822.6241    256.62715    29410.821    7.3903601 
    4380    910.24198   -7923.8275   -7822.2886    123.99562    29434.427    7.4304515 
    4390    917.92726   -7924.3297   -7821.9335   -17.459024    29458.413    7.4696307 
    4400    918.86386   -7924.0771   -7821.5764   -131.59389    29482.412    7.5112185 
    4410    898.88779   -7921.4927   -7821.2205    104.40173    29506.205    7.5558165 
    4420    874.49572   -7918.3851   -7820.8337    462.81605    29530.283    7.6005511 
    4430    866.27941   -7916.9827   -7820.3479     665.1511    29555.461    7.6424497 
    4440    881.97567    -7918.103   -7819.7173    632.75406    29582.201    7.6814876 
    4450    888.16177   -7918.0212   -7818.9454    517.50192    29610.442    7.7196835 
    4460    902.07228   -7918.7016   -7818.0741    262.67842    29639.881    7.7574289 
    4470    921.40098   -7919.9208   -7817.1372   -1.1368663    29669.915    7.7926891 
    4480    925.08604   -7919.4151   -7816.2203   -139.70346     29699.91    7.8241973 
    4490    920.94434   -7918.1193   -7815.3866   -281.30318    29729.491    7.8549045 
    4500    925.78348   -7917.9298   -7814.6572   -338.81015    29758.319    7.8888892 
    4510    927.79677   -7917.5369   -7814.0398   -226.51585    29786.277    7.9275267 
    4520    925.23973   -7916.7559    -7813.544    -237.5562    29813.539    7.9728844 
    4530    915.27019   -7915.2521   -7813.1524   -187.71537    29840.146     8.023175 
    4540    924.64032     -7915.98   -7812.8349   -521.66575    29866.079     8.070018 
    4550    931.86791   -7916.5419   -7812.5906   -971.52774    29890.581    8.1083774 
    4560    933.75287   -7916.5984   -7812.4369   -1153.0958    29912.607    8.1396087 
    4570    933.58424   -7916.5219   -7812.3792   -1043.6132    29931.714    8.1665512 
    4580    931.12088   -7916.2673   -7812.3993   -997.76471    29948.114    8.1921154 
    4590    931.78694   -7916.4232    -7812.481   -1222.7366    29961.866     8.219395 
    4600    931.41382   -7916.5167   -7812.6161   -1307.4603    29972.547    8.2492561 
    4610    945.10744   -7918.2494   -7812.8213   -1478.2268    29979.887    8.2770346 
    4620     952.2404   -7919.3404   -7813.1166   -1616.9223    29983.526     8.299344 
    4630    948.35025   -7919.3008   -7813.5109   -1658.7189    29983.127    8.3163914 
    4640    926.44018   -7917.3226   -7813.9768   -1520.9466    29978.625    8.3245626 
    4650    902.15139   -7915.0868   -7814.4504   -1369.6959    29970.362    8.3229603 
    4660    896.85611   -7914.9354   -7814.8897   -1338.3815    29958.695    8.3160123 
    4670    901.77538    -7915.882   -7815.2876   -1208.5827    29943.782    8.3100062 
    4680    897.92048   -7915.8102   -7815.6458     -945.075    29925.987    8.3092103 
    4690    902.27785    -7916.615   -7815.9645   -930.24164    29905.878    8.3113034 
    4700    915.90711   -7918.4318    -7816.261   -1083.0045    29883.552    8.3087328 
    4710     924.1149   -7919.6569   -7816.5705   -1213.3794    29858.674     8.295715 
    4720    911.30315   -7918.5528   -7816.8956   -1020.7984    29831.012    8.2737348 
    4730    901.17878   -7917.7382   -7817.2104   -724.89215    29801.022    8.2481066 
    4740    895.77691   -7917.4214   -7817.4962   -500.85038    29769.432    8.2265813 
    4750    878.93765   -7915.7805   -7817.7337   -311.54529    29736.851    8.2146632 
    4760    879.21676   -7915.9909    -7817.913   -513.72171    29703.657    8.2099971 
    4770    886.17292   -7916.8905   -7818.0365   -744.38959    29669.467     8.207506 
    4780    896.23894   -7918.1012   -7818.1244   -765.36565    29633.785    8.2033142 
    4790    902.74843   -7918.9003   -7818.1973   -580.40385    29596.582    8.1965528 
    4800     901.4373    -7918.819   -7818.2623   -251.74124    29558.346    8.1888597 
    4810    918.84906   -7920.8341   -7818.3351   -287.67534    29519.782    8.1828734 
    4820    920.06916   -7921.0761    -7818.441   -263.32393    29480.944     8.181753 
    4830    910.05177   -7920.0903   -7818.5727   -172.76857    29441.904    8.1850228 
    4840    933.79481   -7922.9074   -7818.7412   -314.72746     29402.82    8.1883763 
    4850    939.56513   -7923.7798   -7818.9699   -190.56479    29363.508    8.1906408 
    4860    924.68873   -7922.4159   -7819.2654    103.86378     29324.25    8.1967301 
    4870    896.73041   -7919.6131   -7819.5815    489.47456    29285.756    8.2100973 
    4880    883.26072   -7918.3987   -7819.8697    716.97921    29248.899    8.2276041 
    4890    877.55005   -7918.0009   -7820.1089    869.60535    29214.229    8.2419244 
    4900    885.86698   -7919.1211   -7820.3013    962.41177    29182.069    8.2453616 
    4910    885.58577   -7919.2459   -7820.4575     1112.575    29152.651    8.2426586 
    4920    883.56793   -7919.1451   -7820.5818    1205.4473    29126.242    8.2432732 
    4930    889.19483   -7919.8678   -7820.6768    1151.0713    29102.977     8.251236 
    4940    895.73272   -7920.6722   -7820.7519    1099.8187     29082.72     8.267209 
    4950    906.04752   -7921.8948   -7820.8239     1154.989    29065.319    8.2875818 
    4960     894.5475   -7920.6914   -7820.9033    1487.4043    29050.901    8.3072688 
    4970    870.45423   -7918.0626   -7820.9621     1767.239    29040.145    8.3188208 
    4980    882.73692   -7919.4502   -7820.9795    1599.9652     29033.58    8.3198242 
    4990    889.09223   -7920.1372   -7820.9576    1227.3886    29030.792    8.3197845 
    5000    879.86239   -7919.0548   -7820.9049    991.40752    29030.941    8.3253844 
Loop time of 2418.01 on 16 procs for 3000 steps with 864 atoms

Performance: 0.107 ns/day, 223.890 hours/ns, 1.241 timesteps/s
98.3% CPU use with 16 MPI tasks x 1 OpenMP threads

MPI task timing breakdown:
Section |  min time  |  avg time  |  max time  |%varavg| %total
---------------------------------------------------------------
Pair    | 2181.8     | 2282.3     | 2368.1     | 119.6 | 94.39
Bond    | 0.00028014 | 0.00091285 | 0.0023637  |   0.0 |  0.00
Neigh   | 0.030819   | 0.033778   | 0.036381   |   0.7 |  0.00
Comm    | 41.024     | 114.32     | 225.93     | 511.9 |  4.73
Output  | 0.17733    | 0.18147    | 0.24281    |   3.7 |  0.01
Modify  | 6.5648     | 21.213     | 38.976     | 271.0 |  0.88
Other   |            | 0.01583    |            |       |  0.00

Nlocal:        54.0000 ave          59 max          49 min
Histogram: 1 2 0 0 3 2 4 2 1 1
Nghost:        409.750 ave         431 max         389 min
Histogram: 3 0 1 1 2 2 3 3 0 1
Neighs:         0.00000 ave           0 max           0 min
Histogram: 16 0 0 0 0 0 0 0 0 0
FullNghs:      1560.38 ave        1695 max        1346 min
Histogram: 1 0 1 1 0 4 2 3 2 2

Total # of neighbors = 24966
Ave neighs/atom = 28.895833
Ave special neighs/atom = 0.0000000
Neighbor list builds = 300
Dangerous builds = 300
Setting up Verlet run ...
  Unit style    : metal
  Current step  : 5000
  Time step     : 0.001
Per MPI rank memory allocation (min/avg/max) = 8.897 | 8.899 | 8.901 Mbytes
Step Temp PotEng TotEng Press Volume c_msd[4] 
    5000    879.86239   -7919.0548   -7820.9049    991.40752    29030.941    8.3253844 
    5010    882.32948   -7919.3061   -7820.8809    787.50635    29032.017    8.3349986 
    5020    906.82897   -7921.9862    -7820.828    527.26919    29034.917    8.3451855 
    5030    914.26976   -7922.7702    -7820.782    462.09293    29039.123     8.356146 
    5040    898.61593   -7921.0038   -7820.7619    533.16472    29044.471     8.368892 
    5050    892.65922   -7920.3178   -7820.7403     430.1791    29051.054    8.3816649 
    5060    908.10812   -7922.0122   -7820.7114    271.78395    29058.667    8.3926055 
    5070       909.02   -7922.0897   -7820.6872    249.08091     29066.98    8.4050158 
    5080     907.7032   -7921.9416    -7820.686     401.8188    29075.954    8.4186726 
    5090    909.90219   -7922.2073   -7820.7063    539.99295     29085.91    8.4315619 
    5100    909.68524   -7922.2286   -7820.7519    556.07696    29097.157     8.445001 
    5110    907.40251   -7922.0484   -7820.8263    485.91282     29109.74    8.4613917 
    5120    894.64443   -7920.7197   -7820.9208    514.24069    29123.543    8.4817211 
    5130    893.49787   -7920.6923   -7821.0213    435.25619    29138.595    8.5032597 
    5140      908.345   -7922.4531   -7821.1258    237.51379    29154.724    8.5229035 
    5150     919.6483   -7923.8615   -7821.2733    145.36448    29171.502     8.539779 
    5160     900.2748   -7921.9147   -7821.4877    286.74714    29188.761    8.5533311 
    5170    873.19565   -7919.1451   -7821.7388    476.81217      29206.8    8.5634105 
    5180    867.29258    -7918.728   -7821.9802     576.0216    29226.042     8.575874 
    5190    861.81078    -7918.319   -7822.1827    578.13234    29246.733      8.59678 
    5200    862.99475   -7918.6037   -7822.3354    360.92696    29268.863    8.6257832 
    5210    868.65162   -7919.3258   -7822.4264    143.93001    29291.983    8.6592488 
    5220    871.91964   -7919.7218   -7822.4579    182.78594    29315.638     8.692076 
    5230    877.44245   -7920.3127   -7822.4326    279.81442    29339.891    8.7198395 
    5240    895.41906    -7922.241   -7822.3557    142.27041    29364.907    8.7407789 
    5250    899.03694   -7922.5414   -7822.2525    135.55639    29390.444    8.7597542 
    5260    873.62012   -7919.5825   -7822.1289    369.55178    29416.507    8.7855843 
    5270    867.35557   -7918.7064   -7821.9516    424.39643    29443.574    8.8209902 
    5280    873.07228   -7919.0779   -7821.6854    303.24433    29471.811    8.8622007 
    5290    883.83818   -7919.9265    -7821.333    124.94267    29500.945    8.9015992 
    5300    899.32282   -7921.2317   -7820.9108    55.373726    29530.583    8.9355249 
    5310    893.86234    -7920.157   -7820.4454    110.03262    29560.563    8.9654088 
    5320     889.3591   -7919.1608   -7819.9514    81.148112     29590.96    8.9912454 
    5330    886.83587   -7918.3436   -7819.4157   -37.284787    29621.717    9.0136771 
    5340    898.58032   -7919.0781   -7818.8401   -377.79777     29652.51    9.0333658 
    5350    904.40084   -7919.1282   -7818.2409   -508.09066    29682.594    9.0535426 
    5360    896.81645   -7917.6946   -7817.6534   -272.67978     29711.67     9.078309 
    5370    902.36302   -7917.7419    -7817.082   -92.612506    29740.192    9.1099043 
    5380    908.86921   -7917.9098   -7816.5241     137.2002    29768.652    9.1500191 
    5390    930.64997   -7919.8172   -7816.0018    15.372805    29797.498    9.1981431 
    5400      942.553   -7920.6894   -7815.5462    -404.9144    29826.452    9.2548431 
    5410    930.42659   -7918.9796   -7815.1891   -680.05377    29854.566    9.3154082 
    5420     918.4884   -7917.3772   -7814.9184   -830.14382    29881.109    9.3718716 
    5430    918.06992   -7917.1159   -7814.7038   -878.15395    29905.702    9.4249723 
    5440    910.98039   -7916.1573   -7814.5361   -834.00221    29928.193    9.4788149 
    5450    884.38208   -7913.0466   -7814.3924   -547.42636    29948.738    9.5320568 
    5460    866.32748   -7910.8603   -7814.2202   -296.60988    29967.984    9.5809015 
    5470    876.95302   -7911.8076   -7813.9822   -199.32321    29986.527    9.6258635 
    5480     900.6027   -7914.1529   -7813.6893   -242.57585    30004.601      9.67029 
    5490    913.43479    -7915.283    -7813.388   -349.36228    30022.111    9.7129025 
    5500    908.36189   -7914.4315   -7813.1023   -493.66491    30038.798    9.7516609 
    5510     905.6203   -7913.8559   -7812.8326   -709.41263    30054.265    9.7872793 
    5520    907.75246   -7913.8271    -7812.566   -839.76807    30068.011    9.8213397 
    5530    907.41145   -7913.5283   -7812.3052   -758.35202    30079.717    9.8583778 
    5540    918.42007    -7914.506   -7812.0549   -596.73492    30089.542    9.8988378 
    5550    922.96255   -7914.7811   -7811.8233   -660.03559    30097.818    9.9431023 
    5560    915.08533   -7913.7069   -7811.6277   -705.37761    30104.471    9.9907892 
    5570    897.97272    -7911.615   -7811.4448   -681.08208    30109.375    10.035174 
    5580    887.32046   -7910.2253   -7811.2434   -503.48351    30112.611     10.06835 
    5590    887.20295   -7909.9549   -7810.9861   -311.72334    30114.599    10.089467 
    5600      905.317   -7911.6567   -7810.6673   -299.91831     30115.77    10.102218 
    5610    903.45673   -7911.0697   -7810.2877   -315.19309    30116.186    10.114482 
    5620    910.98682    -7911.487   -7809.8651   -460.62514    30115.775    10.132649 
    5630    919.83993   -7912.0041   -7809.3946   -561.05552    30114.214    10.158155 
    5640    929.88976   -7912.6242   -7808.8936   -486.66964    30111.278    10.193105 
    5650    925.45064   -7911.6019   -7808.3665   -389.89483    30107.107    10.241759 
    5660    914.90092   -7909.8774   -7807.8188     9.590991    30102.042    10.301041 
    5670    910.50983   -7908.7958   -7807.2271     260.0034    30096.989    10.357128 
    5680     932.6274    -7910.616     -7806.58    20.569155    30092.496    10.397935 
    5690    949.59844   -7911.8465   -7805.9173   -252.84342    30088.073    10.426863 
    5700      950.779   -7911.3628    -7805.302   -312.43257     30083.07    10.448913 
    5710    952.95394   -7911.0719   -7804.7685   -171.26595    30077.348    10.468578 
    5720    942.46725   -7909.4618   -7804.3282   -134.44251    30071.179    10.491733 
    5730    927.24675   -7907.4069   -7803.9712   -151.52047    30064.686    10.515351 
    5740    935.19287   -7907.9981   -7803.6759   -503.44937    30057.757    10.534072 
    5750    942.19766   -7908.5492   -7803.4456   -869.62936    30049.589    10.554532 
    5760    947.07831   -7908.9488   -7803.3008    -1041.728    30039.306    10.584355 
    5770    948.99771   -7909.1193   -7803.2572   -999.43871    30026.475    10.619088 
    5780    938.76787    -7908.038    -7803.317   -726.15837    30011.221    10.649486 
    5790    945.85448   -7908.9963   -7803.4848   -617.21397    29994.133    10.673959 
    5800    944.79672   -7909.1735     -7803.78   -573.86896    29975.539     10.69454 
    5810    943.11303    -7909.424   -7804.2184   -844.24815    29955.497    10.712564 
    5820    968.07847    -7912.844   -7804.8534    -1252.069    29933.381    10.731556 
    5830    968.06744   -7913.7197   -7805.7303   -1140.1118    29908.353    10.755675 
    5840    952.57101   -7913.0823   -7806.8215   -921.82927    29880.598     10.78581 
    5850    935.29902   -7912.3623   -7808.0283   -823.89147    29850.664    10.820426 
    5860    920.44669   -7911.9032    -7809.226   -666.05929    29818.887    10.860898 
    5870    911.18813   -7911.9495   -7810.3051   -610.01062    29785.641    10.905701 
    5880    921.52558   -7914.0242   -7811.2266    -684.0905    29751.096     10.94685 
    5890     938.0312    -7916.673   -7812.0342   -860.86089    29715.098    10.979744 
    5900    928.19241   -7916.2839   -7812.7426   -688.30348    29677.377    11.009211 
    5910    918.03874   -7915.7556    -7813.347   -406.46286    29638.346    11.037369 
    5920    919.76117   -7916.4621   -7813.8614   -257.03815    29598.682    11.059355 
    5930    925.80058   -7917.6072   -7814.3327    59.999229    29558.867    11.071375 
    5940    905.25569   -7915.7491   -7814.7665    580.54997    29519.717    11.081801 
    5950    890.24861   -7914.4513   -7815.1427    874.96175    29482.394    11.101724 
    5960    892.71658   -7915.0435   -7815.4596    997.17952    29447.625    11.131946 
    5970    901.32129    -7916.285   -7815.7413    1058.6481     29415.68    11.163523 
    5980     903.7928   -7916.8204   -7816.0009    1134.6816    29386.697    11.191156 
    5990    925.39212   -7919.5048    -7816.276    1052.2769    29360.779    11.214074 
    6000    940.79506    -7921.556   -7816.6089    898.73186    29337.721    11.230913 
    6010    942.15308   -7922.1348   -7817.0362     735.4485    29317.107    11.242643 
    6020    930.69301   -7921.3658   -7817.5456    781.86761     29298.57     11.25768 
    6030    924.46779   -7921.2408    -7818.115    799.93723    29282.127    11.282361 
    6040    910.01484   -7920.2288   -7818.7152     849.6638     29267.82    11.311661 
    6050    892.21908   -7918.8309   -7819.3025    993.10909    29255.747    11.337215 
    6060     888.1808   -7918.9265   -7819.8486    1085.8181    29246.181    11.357933 
    6070    890.58915   -7919.6946    -7820.348     1144.905     29239.32    11.380254 
    6080    885.39843   -7919.5732   -7820.8056    1224.8508     29235.27    11.406939 
    6090    868.19932   -7918.0599   -7821.2109    1379.2972    29234.194    11.431348 
    6100    856.58815   -7917.0827    -7821.529    1585.5187    29236.431     11.44703 
    6110    869.98685   -7918.8035   -7821.7552    1635.2876    29242.385    11.454935 
    6120    888.59792   -7921.0405   -7821.9161    1525.5024     29252.13    11.460983 
    6130    896.15977   -7922.0179   -7822.0499    1257.6393    29265.359    11.471431 
    6140    896.38419   -7922.1669   -7822.1739    794.20365      29281.4    11.488506 
    6150    901.51152   -7922.8563   -7822.2914    371.24039    29299.175    11.508965 
    6160    894.73949   -7922.2139   -7822.4044    234.75225    29317.687    11.529484 
    6170    887.62668   -7921.5251    -7822.509    260.23781    29336.583     11.54987 
    6180    873.62296   -7920.0379    -7822.584    375.90936    29355.917    11.574659 
    6190    862.11428   -7918.7738   -7822.6036     422.4414    29375.939    11.601728 
    6200    863.64782   -7918.8846   -7822.5434    268.10863    29396.717    11.625533 
    6210    865.78003   -7918.9712   -7822.3921   -87.716303    29417.853    11.645456 
    6220    888.07674   -7921.2239   -7822.1576   -459.12664    29438.546    11.667165 
    6230    905.14626   -7922.8422   -7821.8717   -652.52691    29457.932    11.697683 
    6240    887.77429   -7920.5974   -7821.5648    -515.4862    29475.609    11.738325 
    6250     874.4441   -7918.7658   -7821.2203   -365.92518    29491.844    11.786482 
    6260    876.81452   -7918.6077   -7820.7977   -322.44985    29506.978    11.833866 
    6270    870.57956   -7917.3991   -7820.2846   -55.515642    29521.211    11.873184 
    6280    877.70503   -7917.5835   -7819.6741    195.89429    29535.151    11.902131 
    6290    906.69264   -7920.1153   -7818.9724     124.2889    29549.331    11.924414 
    6300    924.45757   -7921.3581   -7818.2335    43.879703    29563.664    11.949408 
    6310    935.87149   -7921.9317   -7817.5338    106.04177     29577.97    11.984376 
    6320    920.02621   -7919.5433   -7816.9129    507.62486    29592.445    12.031716 
    6330    904.00117   -7917.2096   -7816.3669    835.46226    29607.983     12.09255 
    6340    906.88482    -7917.024   -7815.8596    858.62947     29625.33    12.165792 
    6350     899.1745   -7915.6879   -7815.3836    776.80324     29644.56    12.243954 
    6360    892.75677   -7914.5277   -7814.9393    508.66372    29665.436    12.316248 
    6370    895.39258   -7914.3856   -7814.5032    207.14413    29687.322    12.371056 
    6380    900.70541   -7914.5585   -7814.0834    199.59618    29709.525    12.401444 
    6390    912.20391   -7915.4602   -7813.7025    454.48308     29732.01    12.411134 
    6400      921.941    -7916.222   -7813.3781    504.11104    29755.293    12.408606 
    6410    936.14951   -7917.5564   -7813.1275    213.44145    29779.455     12.40571 
    6420    934.90837   -7917.2601   -7812.9696    76.348245    29803.879    12.413047 
    6430    919.75631   -7915.5002      -7812.9    53.803012    29828.226    12.432246 
    6440    924.39642   -7916.0073   -7812.8895   -263.74703    29852.324    12.458446 
    6450     933.4228   -7917.0517    -7812.927   -541.76417    29875.469    12.487359 
    6460    930.70994   -7916.8494   -7813.0273   -514.76359    29897.033    12.513444 
    6470     920.3086   -7915.8464   -7813.1846   -396.24518    29917.043    12.531403 
    6480    905.86474   -7914.4167   -7813.3661   -218.80188    29935.823    12.541513 
    6490    901.30145   -7914.0858   -7813.5443   -190.94664    29953.757    12.547495 
    6500    906.05542   -7914.7822   -7813.7103   -134.82178    29970.973    12.551615 
    6510      915.297   -7915.9778    -7813.875   -104.26314    29987.604    12.553358 
    6520    922.26466    -7916.938    -7814.058   -395.29532    30003.656    12.557926 
    6530    902.53099   -7914.9312   -7814.2525   -694.32494      30018.5    12.569146 
    6540    894.61282   -7914.2259   -7814.4305   -1132.1579    30031.347    12.588543 
    6550    895.32771   -7914.4457   -7814.5706   -1311.5789    30041.242    12.615987 
    6560    900.77759   -7915.1745   -7814.6914   -1309.9481     30047.74    12.646489 
    6570    903.42898   -7915.5817   -7814.8029   -1264.6331     30050.89    12.670237 
    6580    904.32003   -7915.7974   -7814.9191   -1279.1906    30050.822    12.679926 
    6590    890.51336   -7914.3652   -7815.0271   -1185.1499    30047.587    12.676263 
    6600    888.13935   -7914.1749   -7815.1016   -1044.1314    30041.461    12.658298 
    6610    898.92055   -7915.4196   -7815.1436   -715.89403    30032.874    12.627589 
    6620    899.68958   -7915.5283   -7815.1666   -320.53005    30022.657    12.598025 
    6630    905.29022   -7916.1771   -7815.1907    7.1275736    30011.803    12.580523 
    6640    895.68894   -7915.1313   -7815.2159    246.36703    30001.149    12.575704 
    6650    886.24687    -7914.091   -7815.2288    372.17082    29991.282    12.581172 
    6660    894.54429   -7915.0053   -7815.2175    463.79791     29982.51    12.597503 
    6670    890.14254    -7914.489   -7815.1923    425.97784    29975.016     12.62588 
    6680     873.5779   -7912.5926   -7815.1437    55.014634    29968.637    12.666025 
    6690    878.77498   -7913.0854   -7815.0567    -460.1871    29962.485    12.711104 
    6700    880.50469   -7913.1518   -7814.9301   -762.22955    29955.352    12.752816 
    6710    876.23755   -7912.5177   -7814.7721    -870.4571    29946.496    12.785363 
    6720    871.96205   -7911.8441   -7814.5754   -1135.2249    29935.602    12.803279 
    6730    888.59608   -7913.4688   -7814.3446   -1486.6431    29922.068    12.805315 
    6740    901.27426   -7914.6318   -7814.0933    -1383.247    29905.219    12.800566 
    6750    895.29047   -7913.7235   -7813.8525   -965.66019    29885.319    12.795666 
    6760    885.42245   -7912.3779   -7813.6077   -568.20649    29863.401    12.790794 
    6770     903.8496   -7914.1822   -7813.3564   -304.16839    29840.454     12.78346 
    6780    896.28397   -7913.0861   -7813.1043    214.20641    29817.258    12.777443 
    6790    909.05963   -7914.2774   -7812.8704    422.17639    29794.938    12.780213 
    6800    917.15261   -7914.9645   -7812.6548     479.1772    29774.057    12.791552 
    6810    932.05108   -7916.4656   -7812.4939    467.91083    29754.714    12.810107 
    6820    945.95111   -7917.9332    -7812.411    571.38732    29736.907    12.833757 
    6830    951.76614   -7918.5988   -7812.4279    663.94917     29720.82    12.856333 
    6840    952.73869   -7918.8463   -7812.5669    641.88775    29706.615    12.876383 
    6850    937.28667   -7917.3652   -7812.8095    669.18693    29694.256    12.894051 
    6860    934.46206   -7917.3702   -7813.1295    558.38892    29683.723    12.909284 
    6870    930.51318   -7917.3091    -7813.509    263.26249    29674.717    12.925621 
    6880     911.2916   -7915.5812   -7813.9253    108.88963    29666.569    12.944177 
    6890    882.88604   -7912.8057   -7814.3185    113.23198    29658.886    12.962165 
    6900    876.66013   -7912.4369   -7814.6441    35.863552    29651.601    12.975846 
    6910    875.99045   -7912.6044   -7814.8864    132.20922    29644.586    12.986443 
    6920    881.74608   -7913.4144   -7815.0543    239.60694    29638.016    12.999183 
    6930    889.22703   -7914.3571   -7815.1625    170.57009    29632.108    13.018118 
    6940    889.92179    -7914.507   -7815.2349    166.09027    29626.755    13.043067 
    6950    886.80801   -7914.1977   -7815.2729    98.771474    29621.896    13.067359 
    6960    898.53736   -7915.5172    -7815.284   -171.34355    29617.317    13.089179 
    6970    910.95625   -7916.9139   -7815.2954   -369.43778    29612.428    13.107022 
    6980    897.92054   -7915.4816   -7815.3172   -326.02767    29606.798    13.116215 
    6990    893.84184   -7915.0451   -7815.3357    -282.1028    29600.481    13.117744 
    7000    896.05703   -7915.2944   -7815.3379   -113.99878    29593.622    13.120674 
    7010    890.31706   -7914.6479   -7815.3317    285.39124    29586.647    13.133334 
    7020    870.48451   -7912.4006   -7815.2967    576.38381     29580.46    13.150587 
    7030    872.71003   -7912.5685   -7815.2164    408.08492    29575.672     13.16079 
    7040    889.14643   -7914.2774   -7815.0918    127.49551    29571.945     13.16034 
    7050    906.13795   -7916.0391   -7814.9581   -213.74223    29568.576    13.153087 
    7060    907.33314    -7916.059   -7814.8446   -588.35202     29564.73    13.143296 
    7070    895.85789   -7914.6878   -7814.7535   -772.71148    29559.563    13.137125 
    7080    901.80423    -7915.266   -7814.6684   -916.96639    29552.616    13.140357 
    7090    901.32225   -7915.1349   -7814.5911   -709.40445    29543.639    13.152661 
    7100    875.18066   -7912.1364   -7814.5087   -347.48482    29533.116    13.167589 
    7110    864.21876   -7910.7885   -7814.3836   -210.72095    29521.856     13.17727 
    7120    876.73107   -7911.9877    -7814.187    -174.3316     29510.23    13.174543 
    7130    907.96456   -7915.2289   -7813.9441    -274.2236    29498.324    13.158181 
    7140    905.98084    -7914.763   -7813.6995   -126.58599    29485.978    13.136355 
    7150    903.91453   -7914.2997   -7813.4667    34.680963    29473.506    13.120594 
    7160    927.16001   -7916.6785   -7813.2524   -346.28025    29461.155    13.118742 
    7170    916.84899   -7915.3575   -7813.0816   -541.03611    29448.184    13.128206 
    7180    900.07661   -7913.3542   -7812.9493   -333.81759    29434.163    13.138444 
    7190    901.41183   -7913.3729   -7812.8191    73.653382    29419.551    13.142334 
    7200    895.21217   -7912.5356   -7812.6734    613.48209    29405.338     13.14377 
    7210     897.4116   -7912.6234   -7812.5157    803.22391    29392.673    13.146738 
    7220    894.34712   -7912.0986   -7812.3328    814.18205     29382.07    13.139776 
    7230     893.8611   -7911.8407   -7812.1291    710.93957    29373.508    13.121005 
    7240    895.19647   -7911.7629   -7811.9023     720.2369    29366.788    13.102994 
    7250    888.51022   -7910.7491   -7811.6345    737.97947     29361.87    13.091178 
    7260    906.28752   -7912.4181   -7811.3204     562.8752    29358.721     13.08128 
    7270    911.07863   -7912.5949   -7810.9627    420.57668    29356.957    13.075276 
    7280    903.27066   -7911.3472    -7810.586     622.8101      29356.3    13.078493 
    7290     904.9026   -7911.1125   -7810.1693    816.12085    29357.144    13.087839 
    7300    923.93883   -7912.7733   -7809.7065    810.69099    29359.893    13.097367 
    7310    943.32167   -7914.4571   -7809.2281    854.25726    29364.583    13.106797 
    7320    939.73115   -7913.6059   -7808.7775    1127.1284    29371.331    13.117942 
    7330    941.27844   -7913.3768   -7808.3757    1363.6344    29380.725    13.131188 
    7340    954.01353   -7914.4522   -7808.0306    1200.9001    29393.222    13.147269 
    7350    942.78269   -7912.9352   -7807.7664    1017.7511    29408.506    13.169434 
    7360    923.57621   -7910.5957   -7807.5694    815.96373    29426.115    13.197021 
    7370    939.00391   -7912.1606   -7807.4133    594.74822    29445.537    13.224556 
    7380    933.09002   -7911.3907   -7807.3031    612.98958    29466.283    13.253415 
    7390    922.87683   -7910.1972   -7807.2489    690.68241    29488.349    13.288344 
    7400     915.8657   -7909.4056   -7807.2394    599.59839    29511.848    13.331758 
    7410    899.10786   -7907.5504   -7807.2536    389.01606    29536.556    13.382429 
    7420    913.17513   -7909.1492   -7807.2831   -111.77208    29561.899    13.437875 
    7430    923.01073    -7910.307   -7807.3438   -481.86942    29586.735    13.493264 
    7440     917.2637   -7909.7813   -7807.4591   -399.03786    29610.249    13.539905 
    7450    927.57962   -7911.1125   -7807.6396   -337.95338    29632.536    13.577345 
    7460    934.96577   -7912.2078    -7807.911   -240.74181    29653.755    13.612481 
    7470    942.65212    -7913.458   -7808.3038   -192.34498    29674.145    13.646992 
    7480    954.69129   -7915.3505   -7808.8533   -424.95197    29693.779    13.679746 
    7490    953.49428   -7915.9474   -7809.5837   -690.10914    29712.157    13.708832 
    7500    941.53631   -7915.5099   -7810.4801   -956.87527    29728.631    13.730912 
    7510    912.18021   -7913.2129   -7811.4579    -824.6134    29742.668    13.744233 
    7520    901.39242   -7912.9743   -7812.4226   -644.48843    29754.523    13.751022 
    7530    903.18587   -7914.0789   -7813.3272   -561.38774    29764.658    13.759122 
    7540    900.58667   -7914.6049   -7814.1431   -777.42315    29773.217    13.774302 
    7550    898.62235   -7915.1016    -7814.859   -1096.5066    29779.732    13.797097 
    7560    904.58771   -7916.3837   -7815.4755   -1375.7334    29783.486    13.823766 
    7570    919.20761   -7918.5701   -7816.0311   -1706.0708    29783.807    13.849108 
    7580    917.85429   -7918.9471   -7816.5591    -1750.283    29779.997     13.86938 
    7590     909.3236   -7918.4936   -7817.0571   -1320.6399    29772.044      13.8823 
    7600    913.64913   -7919.4444   -7817.5254   -963.13433    29760.921    13.890958 
    7610    921.71254   -7920.7947   -7817.9763   -610.91431    29747.594    13.897864 
    7620    928.42415   -7922.0152   -7818.4481   -339.14807     29732.92    13.905246 
    7630    905.31599     -7919.91   -7818.9206    -105.6724    29717.613    13.914683 
    7640      899.801   -7919.7543   -7819.3802   -280.33238    29702.134     13.92415 
    7650    885.16194   -7918.5373   -7819.7962   -392.36436    29686.196    13.932271 
    7660    881.05144   -7918.4444   -7820.1618   -443.35776    29669.495    13.942632 
    7670    872.54692   -7917.7962   -7820.4623    -307.5902    29651.972    13.960056 
    7680    870.81101    -7917.834   -7820.6937   -318.03887    29633.885    13.986599 
    7690    870.24033   -7917.9327   -7820.8561   -358.93111    29615.235    14.021869 
    7700    861.32714   -7917.0263   -7820.9439   -76.220289    29596.019    14.064934 
    7710    859.87058   -7916.8675   -7820.9476    232.51988    29576.841    14.111167 
    7720    870.71554   -7917.9971   -7820.8674    263.09594    29558.403    14.155916 
    7730    885.71516   -7919.5292   -7820.7264    95.791994     29540.79    14.195712 
    7740    888.94145    -7919.709   -7820.5462   -62.251986    29523.625     14.22862 
    7750    890.57601   -7919.6833   -7820.3382   -168.03122    29506.528    14.254711 
    7760    894.93702   -7919.9328   -7820.1012   -155.73666    29489.258     14.27672 
    7770      900.453    -7920.289   -7819.8421   -109.36127    29471.838     14.29561 
    7780    901.30559   -7920.1173   -7819.5753   -179.84912    29454.329    14.310882 
    7790    890.33806   -7918.6167   -7819.2982   -253.05978    29436.598    14.326242 
    7800    879.32816   -7917.0812   -7818.9909   -406.77486    29418.453    14.346086 
    7810    871.51868   -7915.8459   -7818.6267   -631.60711    29399.531    14.372204 
    7820    871.04444   -7915.3504   -7818.1841   -866.49563    29379.307    14.402044 
    7830    887.48858   -7916.6573   -7817.6566   -949.31715    29357.287    14.434853 
    7840    903.02359   -7917.7981   -7817.0645   -820.26225    29333.314    14.471147 
    7850    909.59651    -7917.914   -7816.4471    -462.8118    29307.727    14.505898 
    7860    911.63786    -7917.526   -7815.8314   -156.89081    29281.336    14.532516 
    7870     918.7696   -7917.7281   -7815.2379   -284.21664    29254.794     14.55095 
    7880    935.26758   -7919.0264   -7814.6959   -313.63569     29227.93    14.565416 
    7890    930.26725   -7918.0027     -7814.23    173.88781    29200.762    14.575534 
    7900    924.62825   -7916.9858   -7813.8422    651.05592    29174.345    14.582976 
    7910    926.96265    -7916.921   -7813.5169    932.51522    29149.779    14.595137 
    7920    924.26809   -7916.3587   -7813.2552    1040.0152    29127.686     14.61802 
    7930    939.68636   -7917.8849   -7813.0615    1049.5354    29108.306    14.653207 
    7940    951.92037   -7919.1492    -7812.961    1068.1907    29091.635    14.693944 
    7950    938.34385    -7917.642   -7812.9684    1289.7889    29077.753    14.734235 
    7960    946.93128   -7918.7078   -7813.0762    1329.0193    29067.031    14.774868 
    7970    960.30731   -7920.4211   -7813.2974    1279.6962    29059.553    14.815133 
    7980    960.04297   -7920.7689   -7813.6747    1106.3304    29055.136    14.854436 
    7990    938.90436   -7918.9351   -7814.1989    1047.6228    29053.396    14.897234 
    8000    917.28465   -7917.1408   -7814.8163    1187.7684     29054.19    14.945532 
    8010    903.72472   -7916.2888    -7815.477    1301.3945    29057.746    14.996626 
    8020    888.79949   -7915.2794   -7816.1325    1530.4995    29064.348    15.049329 
    8030    891.07606   -7916.1556   -7816.7547     1550.318    29074.436    15.104085 
    8040    901.40795   -7917.8981   -7817.3446    1075.2896    29087.969    15.161449 
    8050    900.11638    -7918.307   -7817.8977    415.12475    29103.865    15.220466 
    8060      896.657   -7918.4251   -7818.4017    30.382955    29120.657    15.281587 
    8070    887.52311   -7917.8379   -7818.8334   -61.261986    29137.416    15.343684 
    8080    891.96836   -7918.6833   -7819.1829    20.184478    29153.915     15.40207 
    8090    893.28829   -7919.1084   -7819.4607    285.18705    29170.351    15.463371 
    8100    871.32586     -7916.86   -7819.6623    668.45079    29187.347     15.53562 
    8110    861.72043   -7915.9005   -7819.7743    774.17547    29205.726    15.612661 
    8120    855.86627   -7915.2591    -7819.786    623.74779    29225.738    15.688649 
    8130    870.78886   -7916.8582   -7819.7204    104.99361    29246.983    15.758056 
    8140    884.70077   -7918.2948   -7819.6051   -442.45702    29268.302    15.814017 
    8150    877.44636   -7917.3542   -7819.4738   -528.75428    29288.503    15.858548 
    8160    873.32462   -7916.7452   -7819.3246   -434.23554    29307.316    15.891361 
    8170    886.60303   -7918.0524   -7819.1505   -433.08317    29324.915    15.916042 
    8180    896.81413   -7919.0051   -7818.9642   -423.61051     29341.34    15.944506 
    8190    897.10073   -7918.8545   -7818.7815   -265.97848    29356.661    15.984168 
    8200    896.55534   -7918.6224   -7818.6103   -69.759428    29371.239    16.035065 
    8210    886.93873    -7917.375   -7818.4357    172.63116    29385.553    16.091043 
    8220    893.49262   -7917.9211   -7818.2506    318.52658    29400.145    16.144091 
    8230    897.28288    -7918.147   -7818.0538    539.87005    29415.423    16.188814 
    8240    895.08963   -7917.7047   -7817.8561    733.71151    29431.884    16.222785 
    8250    893.20267   -7917.2957   -7817.6576    874.72265     29449.98    16.246299 
    8260     883.2531   -7915.9702    -7817.442    1020.7731    29470.078    16.266619 
    8270    902.89087   -7917.9174   -7817.1985    771.99812     29492.41    16.291216 
    8280     925.6736   -7920.2013    -7816.941    472.49774    29516.443    16.329776 
    8290    936.05999   -7921.1464   -7816.7275    270.76587    29541.471    16.385972 
    8300     933.9965   -7920.7759   -7816.5872     72.11205    29566.983    16.449985 
    8310    917.59917   -7918.8775    -7816.518   -81.029098    29592.501    16.511019 
    8320    910.04052   -7918.0122   -7816.4958   -117.93204    29617.667    16.562335 
    8330    910.59277   -7918.0742   -7816.4963   -140.68406    29642.363    16.606416 
    8340    905.59904   -7917.5411   -7816.5202   -33.285947    29666.577     16.65223 
    8350    897.10613   -7916.6332   -7816.5596   -24.521026    29690.525    16.706013 
    8360    904.61949   -7917.5137    -7816.602   -284.03542    29714.199    16.765624 
    8370     921.6216   -7919.4651   -7816.6568    -585.7888    29737.003    16.825214 
    8380    923.99938   -7919.8364   -7816.7628   -882.85073    29758.206     16.87619 
    8390    911.15513   -7918.5702   -7816.9295   -1080.4837    29777.111    16.908053 
    8400    904.16055   -7918.0009   -7817.1404   -1103.3662    29793.264    16.918304 
    8410    904.54634   -7918.2907   -7817.3872   -915.24909    29806.631    16.918347 
    8420    901.04556   -7918.1785   -7817.6655   -824.26733    29817.631    16.919643 
    8430    905.46794   -7918.9968   -7817.9905   -1127.6599    29826.441    16.926769 
    8440    889.86013   -7917.6188   -7818.3536     -1399.21    29832.418    16.943286 
    8450    876.67901   -7916.5259    -7818.731   -1473.1257    29834.935    16.965218 
    8460    877.73082   -7917.0101   -7819.0979   -1539.6975    29833.806    16.986742 
    8470    881.18842   -7917.7579     -7819.46    -1583.144    29828.874    17.005568 
    8480    871.46125   -7917.0297   -7819.8169   -1197.2656    29820.179    17.021471 
    8490    849.21247   -7914.8667   -7820.1358   -739.22018    29808.616    17.038042 
    8500    843.34256   -7914.4503   -7820.3742   -506.69382    29795.265    17.058473 
    8510    858.75018    -7916.318   -7820.5231    -382.7445     29780.73    17.082462 
    8520    860.91119   -7916.6215   -7820.5855    7.0728551    29765.435    17.107557 
    8530    868.79115   -7917.4819   -7820.5669    162.88014    29750.201    17.132313 
    8540    893.31876   -7920.1323   -7820.4812    200.49663    29735.442    17.159517 
    8550    903.59424   -7921.1572   -7820.3599    385.72487    29721.317    17.191414 
    8560    895.99927   -7920.1788   -7820.2287    420.82904    29708.187    17.229047 
    8570    876.83907   -7917.8786   -7820.0658    253.26293    29696.128     17.27172 
[...]
   22890    888.63237   -7922.0144   -7822.8861    1208.1543    29197.507    52.059024 
   22900    889.00927   -7921.9917   -7822.8214    1250.0286    29211.107    52.044838 
   22910    887.34584   -7921.7304   -7822.7456    1109.6284    29227.511    52.035932 
   22920    890.83878   -7922.0308   -7822.6564    698.85535    29246.334    52.036473 
   22930    899.21198   -7922.8684   -7822.5599    415.55302    29266.687    52.039654 
   22940    894.03168   -7922.1963   -7822.4657    426.51242    29287.927     52.05165 
   22950    899.29212   -7922.6942   -7822.3769    281.33402    29309.973    52.081963 
   22960    905.84502   -7923.3431   -7822.2948    187.47487    29332.533    52.131712 
   22970    903.77234    -7923.049   -7822.2318     152.4795    29355.379    52.190866 
   22980     893.3804   -7921.8413   -7822.1834    161.78152    29378.434    52.241486 
   22990    887.74269   -7921.1588   -7822.1298    92.452926    29401.706    52.281803 
   23000    885.90472   -7920.8785   -7822.0545   -264.07851    29424.954    52.325666 
   23010    886.09677   -7920.7967   -7821.9513   -705.36385    29447.373    52.387405 
   23020    883.69411   -7920.3974     -7821.82   -1059.0526    29467.947    52.471156 
   23030    866.03367   -7918.2608   -7821.6534   -1099.7766    29485.888    52.577623 
   23040    864.73156   -7917.8986   -7821.4365   -1016.4889     29501.06     52.69918 
   23050    876.13526   -7918.8913   -7821.1571   -828.00679    29513.683    52.815258 
   23060    887.67179   -7919.8608   -7820.8397   -462.01757    29524.259    52.911718 
   23070    890.68606   -7919.8646   -7820.5073   -274.96241    29533.619    52.990705 
   23080    905.10302   -7921.1438   -7820.1782   -522.79046    29542.165    53.058015 
   23090    909.01269   -7921.2723   -7819.8706   -780.39837    29549.404    53.121111 
   23100    902.71263   -7920.3003   -7819.6014   -925.02452    29554.741    53.179834 
   23110    893.44927   -7919.0247   -7819.3591   -1065.9384    29557.807    53.223138 
   23120    869.52658   -7916.1112   -7819.1142   -1002.3288    29558.323    53.244891 
   23130    859.16298   -7914.6706   -7818.8296   -886.80242    29556.411    53.250245 
   23140    864.51717   -7914.9146   -7818.4764   -996.96047    29552.302    53.250086 
   23150    870.12981   -7915.1273    -7818.063   -1200.8039    29545.764    53.249353 
   23160    894.71731   -7917.4229   -7817.6159   -1421.0592    29536.349    53.243433 
   23170     918.5052   -7919.6413   -7817.1807   -1331.9288    29523.621    53.228945 
   23180    915.85557   -7918.9777   -7816.8126   -814.09839    29507.832    53.208341 
   23190    902.63006   -7917.2055   -7816.5158   -374.39777    29490.123    53.188947 
   23200    901.33572   -7916.8093    -7816.264   -202.58898    29471.565    53.181151 
   23210    905.81767   -7917.0861   -7816.0408   -351.37531    29452.554    53.184278 
   23220    903.25456   -7916.6109   -7815.8515   -245.62142    29432.865     53.18868 
   23230    901.60226   -7916.2586   -7815.6835   -4.0079425    29412.723    53.197439 
   23240    914.10044   -7917.5156   -7815.5463   -55.485984    29392.601    53.220543 
   23250    905.53936   -7916.4626   -7815.4483   -96.191437    29372.474    53.251928 
   23260    905.21573   -7916.3597   -7815.3815   -260.82078    29352.212     53.27902 
   23270    923.61693   -7918.3825   -7815.3516   -546.90859    29331.402    53.288814 
   23280    911.33302   -7917.0265   -7815.3659   -395.98383    29309.489    53.284126 
   23290    896.25104   -7915.3789   -7815.4008   -89.807861    29286.773    53.278111 
   23300    892.75132   -7915.0134   -7815.4256    93.353836    29263.932    53.280482 
   23310    884.27084    -7914.061   -7815.4193    416.86646    29241.475    53.297511 
   23320    890.26929   -7914.6922   -7815.3813    487.70481    29220.072    53.323831 
   23330    893.39614   -7914.9808   -7815.3212    433.44931    29199.922    53.338167 
   23340    903.45151   -7916.0397   -7815.2583    311.19789    29180.889    53.327245 
   23350    904.35229   -7916.0877   -7815.2058    332.75183    29162.724    53.306562 
   23360    894.69202   -7914.9628   -7815.1585    512.60343    29145.485    53.291704 
   23370    900.48593   -7915.5635   -7815.1129    577.95902    29129.521    53.288322 
   23380    907.54939   -7916.3097   -7815.0712    698.78593    29115.017    53.300414 
   23390    916.57259   -7917.2956   -7815.0505     666.3408    29102.195    53.319524 
   23400    922.51113   -7917.9759   -7815.0684    420.69075    29090.953    53.340055 
   23410    909.97823   -7916.6358   -7815.1264    353.19021      29080.8    53.365314 
   23420    900.67706   -7915.6765   -7815.2046    408.01714    29071.553    53.399031 
   23430    903.99923   -7916.1366   -7815.2941    364.81096    29063.287    53.436286 
   23440    881.74494   -7913.7414   -7815.3815    532.21571    29055.963    53.463993 
   23450    870.33319   -7912.5167   -7815.4297    620.26924    29049.901    53.471242 
   23460    888.22188   -7914.5079   -7815.4254     494.0999    29045.278    53.461001 
   23470    894.89318     -7915.21   -7815.3833     429.1477    29041.849    53.447076 
   23480    904.19972   -7916.1927   -7815.3279    453.56331    29039.467    53.435191 
   23490    915.58219    -7917.408   -7815.2734    501.98471    29038.172     53.42744 
   23500    934.51249   -7919.5083   -7815.2621    436.17805    29038.037    53.431135 
   23510    919.49038   -7917.8885    -7815.318    556.33409    29038.977     53.44967 
   23520    901.57572    -7915.999   -7815.4269    605.10764    29041.203     53.47756 
   23530    912.18569   -7917.3182   -7815.5625    292.20778    29044.793    53.512502 
   23540    921.54387   -7918.5394   -7815.7398   -166.46779    29049.058    53.552936 
   23550    921.54905   -7918.7861   -7815.9859   -437.86127    29052.961    53.588613 
   23560    923.13357   -7919.3005   -7816.3235   -451.21312    29055.879    53.612235 
   23570    914.80715   -7918.8245   -7816.7764   -242.52087     29057.77    53.625008 
   23580     907.6504   -7918.6025   -7817.3527    83.552237    29059.115    53.640403 
   23590    919.48132    -7920.651   -7818.0815    268.59753    29060.639    53.677939 
   23600    920.35459   -7921.6617   -7818.9947    215.15531    29062.741    53.746508 
   23610    899.88582   -7920.4578   -7820.0742    49.438942    29065.335    53.835364 
   23620     873.0893   -7918.6009   -7821.2065    11.954766     29068.08    53.915056 
   23630    868.22616   -7919.1286   -7822.2767    21.750918    29070.863    53.955749 
   23640    873.24339   -7920.6323   -7823.2206    84.783745    29073.718    53.958592 
   23650    873.31198   -7921.4305   -7824.0113    361.14054    29076.813    53.944525 
   23660    857.25546   -7920.2546   -7824.6264    814.22443    29080.804    53.938642 
   23670    843.89187   -7919.1886   -7825.0512    887.24743    29086.643    53.961479 
   23680    854.90939    -7920.672   -7825.3056    527.87767    29094.504    53.996783 
   23690    864.80022   -7921.8993   -7825.4295    266.57007    29103.665    54.023303 
   23700    860.17366    -7921.415   -7825.4613    220.67705    29113.521    54.037873 
   23710    856.12621   -7920.9102   -7825.4081     150.3097    29123.915    54.039326 
   23720      862.175   -7921.4495   -7825.2726   -72.175931    29134.666    54.031019 
   23730    868.39135   -7921.9394    -7825.069   -294.80633    29145.284    54.019938 
   23740    874.57751   -7922.3754    -7824.815   -397.35458    29155.275    54.006809 
   23750    882.22758   -7922.9401   -7824.5263   -470.08568     29164.36    53.993593 
   23760    884.81368     -7922.92   -7824.2177   -448.37747    29172.387    53.979966 
   23770    887.13545   -7922.8591   -7823.8978   -420.59693    29179.394    53.960982 
   23780    885.24521   -7922.3147   -7823.5642   -362.60009    29185.451    53.940704 
   23790    884.32147    -7921.863   -7823.2156   -276.22712    29190.675    53.930716 
   23800    897.28194   -7922.9489   -7822.8557   -114.73724    29195.278    53.934297 
   23810     895.3104   -7922.3708   -7822.4976    226.89028    29199.693    53.945628 
   23820    893.28453      -7921.8   -7822.1528    140.09012    29204.567    53.967663 
   23830    887.00439   -7920.7531   -7821.8065   -32.400793    29209.796    54.000195 
   23840    883.01583   -7919.9495   -7821.4478   -172.62875    29214.982    54.033517 
   23850    874.25311   -7918.5876   -7821.0634   -134.99772    29219.826    54.061907 
   23860    859.58291   -7916.5273   -7820.6395    170.19572     29224.44    54.082998 
   23870    865.73108   -7916.7338   -7820.1602    249.90719    29229.437    54.105567 
   23880    872.98686   -7917.0061   -7819.6231    178.70876    29235.036    54.145829 
   23890    887.43175    -7918.055   -7819.0607    158.09348    29241.105    54.204865 
   23900    895.31093   -7918.3744   -7818.5012    173.56152    29247.612    54.271763 
   23910    903.58425   -7918.7749   -7817.9788    35.197134    29254.558    54.332338 
   23920    921.78603   -7920.3371   -7817.5105   -158.51593    29261.633    54.376346 
   23930    929.27096   -7920.7844   -7817.1228   -154.72599    29268.432    54.408622 
   23940    923.83944   -7919.8891   -7816.8335   -24.285863    29274.946    54.449761 
   23950     917.3313   -7918.9504   -7816.6207    101.88685    29281.456    54.502814 
   23960    921.11711   -7919.2271   -7816.4751    223.05059     29288.26    54.558148 
   23970    924.25615   -7919.4937   -7816.3916    449.95999     29295.69    54.601151 
   23980    929.90524   -7920.1086   -7816.3762    585.42046    29304.259    54.628659 
   23990      927.477   -7919.8871   -7816.4257     617.6925    29314.302    54.664023 
   24000    921.77029   -7919.3574   -7816.5326    640.45523    29325.909    54.725717 
   24010    918.34475   -7919.1256   -7816.6829    712.78745    29339.174    54.811338 
   24020    905.55939   -7917.8754   -7816.8589    824.30376    29354.301    54.903396 
   24030    901.93577   -7917.6505   -7817.0382    731.37957    29371.515    54.982584 
   24040    908.98696   -7918.6118    -7817.213    354.89449    29390.589    55.043998 
   24050    901.95683   -7917.9971   -7817.3825   -4.8933283    29410.713    55.096813 
   24060    902.35254    -7918.204   -7817.5452   -401.90998    29430.997    55.150105 
   24070    913.21991   -7919.5717   -7817.7006   -823.46163    29450.491    55.210153 
   24080    915.70992   -7920.0169   -7817.8681   -1133.7455    29468.187    55.281684 
   24090    909.99966   -7919.5737   -7818.0619    -1186.317    29483.323    55.362383 
   24100    907.98968   -7919.5607   -7818.2731   -977.64605    29495.756    55.440771 
   24110    908.39389   -7919.8276   -7818.4949   -755.57543    29505.922    55.513477 
   24120    905.59364   -7919.7456   -7818.7252   -768.12621    29514.299    55.585637 
   24130     894.5158   -7918.7414   -7818.9568    -1028.027    29520.832    55.655266 
   24140    881.60609   -7917.5112   -7819.1667    -1366.939    29524.891    55.713894 
   24150    879.46009   -7917.4386   -7819.3335   -1619.6707    29525.661    55.761753 
   24160     888.0974   -7918.5299   -7819.4613   -1575.3641    29522.539     55.79965 
   24170    884.24716   -7918.1983   -7819.5592   -1202.7247    29515.616    55.827922 
   24180    864.69197   -7916.0699   -7819.6122   -729.56055    29505.725    55.853464 
   24190    865.04279   -7916.0899   -7819.5931    -495.7489    29493.921    55.882146 
   24200    887.37467    -7918.494   -7819.5061    -533.4127    29480.753    55.916615 
   24210    898.15361    -7919.573   -7819.3826   -396.09136    29466.223    55.957157 
   24220    906.96455   -7920.4246   -7819.2514   -236.66064    29450.589    55.993388 
   24230    919.14944   -7921.6644   -7819.1319   -78.213765    29434.237    56.014173 
   24240    920.10845   -7921.6813   -7819.0418    236.26656    29417.593    56.017057 
   24250    919.61329   -7921.5748   -7818.9906    410.31873    29401.336    56.011583 
   24260    913.36564   -7920.8671   -7818.9798    369.65984    29385.867    56.006942 
   24270    902.45999   -7919.6653   -7818.9945    343.95828    29371.165    56.003577 
   24280    907.35379   -7920.2477    -7819.031    72.163389     29357.08    55.995845 
   24290    893.63436   -7918.7695   -7819.0833    34.145857    29343.094    55.983461 
   24300    896.48958   -7919.1568   -7819.1521   -3.9671545     29329.03    55.971628 
   24310    908.07205   -7920.5403   -7819.2435    -51.38443    29314.796    55.968154 
   24320    902.07946   -7920.0163    -7819.388    86.517748    29300.329    55.972622 
   24330    895.28985   -7919.4532   -7819.5823    294.86839    29285.927    55.966757 
   24340    901.32014   -7920.3705   -7819.8269    506.53415    29272.073    55.943991 
   24350    896.66132   -7920.1456   -7820.1217    787.77963    29259.302    55.923583 
   24360    892.92736   -7920.0671   -7820.4597    875.63591    29248.249    55.917568 
   24370     888.6425   -7919.9556   -7820.8262    832.05925    29239.159    55.922177 
   24380    873.98926   -7918.6871   -7821.1923    815.92019     29231.98    55.936702 
   24390    860.50376   -7917.5139   -7821.5234    712.29819    29226.651    55.969954 
   24400    858.61912   -7917.5683    -7821.788    508.40737    29222.951     56.01542 
   24410    868.21606   -7918.8322   -7821.9814    302.11767    29220.446    56.057833 
   24420    875.77567   -7919.8049   -7822.1108    234.29034    29218.662    56.087715 
   24430    882.46315   -7920.6251    -7822.185    410.20355    29217.476    56.106376 
   24440    896.92191     -7922.28    -7822.227    598.41636    29217.274    56.124916 
   24450    901.70428   -7922.8453   -7822.2588    738.39472    29218.515    56.156864 
   24460    899.85693   -7922.6741   -7822.2937    711.11495    29221.521    56.208164 
   24470    889.38651   -7921.5391   -7822.3267    546.22707    29226.253    56.267353 
   24480    885.70105   -7921.1434   -7822.3421     548.3428    29232.417    56.330359 
   24490    895.60829   -7922.2424    -7822.336    629.67868    29240.006    56.408198 
   24500    885.47705   -7921.0872   -7822.3109    882.57243    29249.272    56.504469 
   24510    876.88001   -7920.0726   -7822.2553    1034.2611    29260.783     56.60405 
   24520    895.36224   -7922.0403   -7822.1613    913.51404    29274.892    56.685197 
   24530    886.57371   -7920.9348   -7822.0362    929.52065    29291.467    56.748287 
   24540    865.24809    -7918.395   -7821.8753     917.5482    29310.535    56.803287 
   24550    875.27807   -7919.2833   -7821.6447    728.77584    29332.085    56.851155 
   24560     888.7994   -7920.4881   -7821.3412    728.96497    29355.795    56.896554 
   24570    882.59258    -7919.448   -7820.9935    841.29843    29381.685    56.949662 
   24580    883.06236   -7919.1065   -7820.5995    639.42335    29409.968    57.009959 
   24590    900.47061   -7920.5975   -7820.1486    181.67213    29440.202      57.0741 
   24600    912.22494   -7921.4295   -7819.6694   -155.63948    29471.385    57.150148 
   24610      906.453   -7920.3151   -7819.1989   -223.41725    29502.725     57.23575 
   24620    887.37856   -7917.7294   -7818.7409   -47.866265    29534.049    57.315755 
   24630    888.81123   -7917.4156   -7818.2673   -43.227806    29565.685    57.384806 
   24640    904.62368   -7918.6695   -7817.7574   -453.79317    29597.587     57.44814 
   24650    908.83879   -7918.6252   -7817.2429   -906.48922    29628.834    57.516397 
   24660    886.84107   -7915.6706   -7816.7421   -1080.5494    29658.349    57.591489 
   24670    856.02105   -7911.7218   -7816.2314   -1086.4427    29685.656     57.66915 
   24680    852.09823   -7910.7094   -7815.6566   -1289.6288    29710.593    57.750292 
   24690    869.28341   -7911.9687   -7814.9989   -1438.6243    29732.688    57.829533 
   24700    884.40102   -7912.9527   -7814.2965   -1431.0418    29751.547    57.903358 
   24710    893.14964    -7913.233   -7813.6008   -1211.0913    29767.157    57.973919 
   24720     915.4652   -7915.0696   -7812.9481     -1181.25     29779.89    58.038872 
   24730    910.70251   -7913.9569   -7812.3666   -1061.0045     29789.88    58.086009 
   24740    911.86644   -7913.6036   -7811.8835   -1042.1807    29797.326    58.112416 
   24750    902.76594   -7912.1879    -7811.483   -808.13352     29802.34    58.131784 
   24760    899.43322   -7911.4746   -7811.1415   -646.14436    29805.394    58.161908 
   24770    923.23572   -7913.8356   -7810.8473   -771.10186     29806.81    58.208331 
   24780    930.50599   -7914.4209   -7810.6216   -735.68676    29806.364    58.273249 
   24790    925.43665   -7913.7186   -7810.4848   -491.71502    29804.129    58.355538 
   24800    918.50353   -7912.8798   -7810.4194    -384.4763    29800.617     58.43427 
   24810    925.87114   -7913.6974    -7810.415   -483.71157    29796.075     58.48308 
   24820    930.61722   -7914.2824   -7810.4706    -545.1663    29790.298    58.491861 
   24830    929.35846   -7914.2547   -7810.5833   -537.96856     29783.12     58.47168 
   24840    923.15892   -7913.7195   -7810.7397   -599.87902     29774.52    58.445239 
   24850    924.19779    -7914.037   -7810.9414   -831.61057    29764.302     58.43236 
   24860     912.1698   -7912.9386   -7811.1847   -944.86717    29751.959    58.433406 
   24870    893.92631    -7911.166   -7811.4471    -996.6569     29737.18     58.43102 
   24880    882.76568   -7910.1773   -7811.7034   -1132.8975    29719.801    58.422307 
   24890    880.02522   -7910.0974   -7811.9293   -1371.8808    29699.466    58.417725 
   24900    894.22004   -7911.8739   -7812.1223   -1374.1612    29675.671    58.418898 
   24910    896.55192   -7912.2969   -7812.2852   -981.76563    29648.456    58.410867 
   24920    903.60424   -7913.2373   -7812.4389   -691.93825    29618.665    58.384107 
   24930    915.01009   -7914.6634   -7812.5927   -439.47206    29587.074    58.350077 
   24940    933.77551   -7916.9489   -7812.7848    -397.1811    29554.267    58.324274 
   24950    921.79916   -7915.8664   -7813.0383   -282.13621    29520.465    58.315066 
   24960    918.01937   -7915.7643   -7813.3579    -331.1143    29485.905    58.320433 
   24970    925.54987   -7917.0016   -7813.7551   -346.28817    29450.546    58.324269 
   24980    919.35069   -7916.8064   -7814.2515   -11.731637    29414.438    58.310062 
   24990    895.73574   -7914.7318   -7814.8111    580.65722    29378.397    58.274702 
   25000    900.37376   -7915.8482   -7815.4101    850.93531    29343.722    58.230436 
Loop time of 15939 on 16 procs for 20000 steps with 864 atoms

Performance: 0.108 ns/day, 221.375 hours/ns, 1.255 timesteps/s
98.2% CPU use with 16 MPI tasks x 1 OpenMP threads

MPI task timing breakdown:
Section |  min time  |  avg time  |  max time  |%varavg| %total
---------------------------------------------------------------
Pair    | 14713      | 15087      | 15526      | 200.0 | 94.66
Bond    | 0.0047574  | 0.0090967  | 0.016511   |   3.3 |  0.00
Neigh   | 0.21985    | 0.22829    | 0.24146    |   1.2 |  0.00
Comm    | 266.38     | 742.25     | 1155.3     | 922.9 |  4.66
Output  | 1.2925     | 1.3196     | 1.7213     |   9.0 |  0.01
Modify  | 69.47      | 107.63     | 144.98     | 228.4 |  0.68
Other   |            | 0.1033     |            |       |  0.00

Nlocal:        54.0000 ave          60 max          47 min
Histogram: 1 1 0 4 1 1 3 4 0 1
Nghost:        409.250 ave         424 max         389 min
Histogram: 1 0 4 0 0 2 2 2 3 2
Neighs:         0.00000 ave           0 max           0 min
Histogram: 16 0 0 0 0 0 0 0 0 0
FullNghs:      1548.62 ave        1735 max        1283 min
Histogram: 1 1 0 1 4 2 1 1 3 2

Total # of neighbors = 24778
Ave neighs/atom = 28.678241
Ave special neighs/atom = 0.0000000
Neighbor list builds = 2000
Dangerous builds = 2000
Total wall time: 5:31:53
