LAMMPS data file via write_data, version 2 Aug 2023, timestep = 80000, units = metal

1536 atoms
3 atom types

-0.07248665901161111 25.003098903910068 xlo xhi
-2.0283318889654023 26.95894413386349 ylo yhi
-5.423516415528418 80.21535315022308 zlo zhi

Masses

1 35.44999999088069
2 39.09829998994218
3 6.939999998214724

Atoms # full

16 0 1 -1 3.502566114630555 -0.49116702889280717 -3.889886211346651 0 0 0
116 0 2 1 5.959542649735543 -1.7190926097312913 -4.681410918830585 0 0 0
784 0 1 -1 8.072455432104402 -0.6343785479327944 -3.603188841988323 0 0 0
1072 0 1 -1 14.093031013663147 -0.26972842967224153 -5.330540111989538 0 1 0
4 0 2 1 11.041875358119913 0.21118566104871128 -4.451667703523728 0 0 0
685 0 1 -1 19.328091166774918 -1.8282520101711164 -3.4938349077978508 0 1 0
1260 0 2 1 4.476593556639917 2.6790513618317986 -4.8920101350181735 1 0 0
6 0 1 -1 10.447919539538834 3.689826481835337 -3.6406433833664833 0 0 0
770 0 2 1 19.93901571116502 2.391051802916647 -4.161719126863482 0 0 0
782 0 1 -1 22.891947648590815 1.201445774462075 -2.8868114173019315 0 0 0
1263 0 1 -1 3.462042466541819 5.166496104157449 -3.800987060518985 1 0 0
483 0 2 1 6.691306034724668 5.196507051048648 -3.9800342418583043 0 0 0
205 0 1 -1 9.694529828100167 7.564410844373143 -5.29552470212292 0 0 0
195 0 2 1 10.980546988370289 6.708216623910907 -2.6498019511104145 0 0 0
879 0 1 -1 14.168366481123673 5.940610765809679 -3.440819054844749 0 0 0
874 0 2 1 17.40338278014263 6.930130210759865 -3.7671184855677984 0 0 0
1269 0 1 -1 19.1526489825265 4.677009303402003 -2.530894911435837 0 0 0
1258 0 2 1 3.1672184058721857 8.777999090951521 -3.956024531076923 1 0 0
213 0 1 -1 0.25842659118892447 9.75492471415777 -4.810233855213439 0 0 0
1268 0 2 1 7.110983429771142 9.774426039291498 -3.9033183339378517 1 0 0
969 0 3 1 13.88732734691696 9.159768545570794 -3.2283842955532016 0 0 0
966 0 1 -1 16.28892082628027 9.73855204397289 -2.3003279033712283 0 0 0
977 0 3 1 18.62259123763289 9.67663343284702 -2.9600224274167886 0 0 0
883 0 3 1 24.885105285234992 8.107508081706625 -2.530826133382815 0 0 0
884 0 2 1 0.18916870614921327 13.485079864166972 -2.66805228949299 1 0 0
208 0 1 -1 5.829060437533638 11.859759931761333 -5.2116463741428305 0 0 0
1351 0 1 -1 9.625207466088007 12.214011325124243 -3.8388945585456007 1 0 0
316 0 3 1 8.724688715684428 13.878421823630765 -2.452914443283595 0 0 0
579 0 2 1 12.7919109952913 12.923199583266719 -4.489231800364269 0 0 0
976 0 1 -1 19.756788165725574 11.438344473663518 -2.6630020464644297 0 0 0
202 0 2 1 21.892894159475247 11.436509387523397 -5.064847366985216 -1 0 0
1358 0 1 -1 1.7720968125733934 14.920728860731034 -4.354810000153492 1 0 0
211 0 2 1 4.840982359203791 14.416374711794147 -2.3388151246979976 0 0 0
599 0 1 -1 7.4226472819396 16.14078450628977 -2.9189461490580637 0 0 0
682 0 3 1 10.547139389221094 16.442235614003856 -3.883641347319073 0 0 0
972 0 2 1 15.05190206234387 16.4575861124616 -2.4815576404307818 0 0 0
967 0 1 -1 16.707856414006265 14.378739051914495 -4.543169802164796 0 0 0
282 0 2 1 19.523656004470787 16.131331673053424 -4.822317597606323 -1 0 1
1359 0 1 -1 22.09333534191088 14.655773300311003 -4.5353912656018895 0 0 0
299 0 3 1 6.8500979078180775 18.48911803938116 -3.49254874768061 0 0 0
1454 0 1 -1 4.908078068450749 19.120737231350873 -4.229936644571007 1 0 0
1077 0 1 -1 11.551952205894741 19.147518457866262 -4.237026788532351 0 0 0
971 0 2 1 17.150585780547033 19.678512676608264 -2.655890611398699 0 0 0
1069 0 1 -1 20.402761386932127 19.426203322454924 -4.151733216278608 0 0 0
204 0 2 1 22.99902951407409 17.930490714452624 -3.2884340514094594 -1 0 0
1073 0 2 1 6.749295146105744 21.778378399665087 -2.9143388353084427 0 0 0
1163 0 2 1 4.544427301805487 22.87754742873181 -5.162904607462002 1 -1 0
1067 0 2 1 13.899590587073352 20.914221414069075 -4.7945597487325955 0 0 0
586 0 3 1 10.693945643485366 23.6992476536766 -3.5068956887521323 0 0 0
582 0 1 -1 15.829533059092126 23.353647407746536 -4.9708267984348495 0 0 0
1455 0 1 -1 18.324638542614224 22.82434808813307 -2.605341808673684 0 0 0
964 0 2 1 21.742478448760913 22.675623745300733 -3.28269154295459 0 0 0
1459 0 2 1 3.060762401372271 25.60918718709064 -2.315861277663428 1 0 0
687 0 1 -1 7.2601311411942895 24.3230646621708 -4.321228682457356 0 0 0
761 0 2 1 13.880303805620175 25.820213495772634 -5.374809305060483 0 0 1
683 0 3 1 15.898708884880293 23.91240635192623 -2.6868580657262617 0 0 0
1464 0 1 -1 24.957608692854365 25.088515466364548 -3.151904867176473 0 0 0
772 0 2 1 22.20586473021809 26.23654597416747 -3.5464394457303507 0 -1 0
21 0 1 -1 1.9476547046332788 -1.9322205801357542 0.0960342499935729 0 0 0
401 0 2 1 3.890511021985387 0.5161119314054075 0.659475278792673 0 0 0
404 0 3 1 6.886916843856833 0.48287231256325214 -2.0978203380496536 0 0 0
405 0 1 -1 5.684578640414918 -1.7263535626390127 -0.9301231992086985 0 0 0
777 0 2 1 10.827370516656087 -0.5737806539927464 -0.3785074605748626 0 0 0
692 0 2 1 15.729603421745438 -0.5030375483353262 -2.039615816339511 0 1 0
885 0 1 -1 17.80361289175675 1.1556865530342018 -1.2905225188766254 0 0 0
1162 0 2 1 24.078152064031826 0.04542821551592002 -0.06093035649035006 0 0 0
786 0 2 1 0.17612160290535156 3.024635021239283 -1.9961347804106557 1 0 0
398 0 1 -1 5.26241199786493 2.4701733945601916 -1.746695839378721 0 0 0
491 0 3 1 6.753479088113941 2.7858132948148357 0.15388502190776698 0 0 0
391 0 1 -1 8.964575611553645 2.0771609870801155 -0.3668978204434854 0 0 0
792 0 1 -1 13.211890327141267 1.6908416584356103 -1.344829650565881 0 0 0
106 0 3 1 11.965705974039253 3.3784120593274816 -2.120314095939537 0 0 0
497 0 3 1 13.47537855352445 3.248709623502605 0.5674885115238792 0 0 0
892 0 2 1 15.747083617729125 3.631140278800128 -1.7368117489275123 0 0 0
771 0 2 1 20.666543308953003 2.6676500603285422 -0.19381381221837835 0 0 0
1166 0 1 -1 1.1455298647642442 6.130096573238399 -1.6373773151007933 1 0 0
1259 0 2 1 4.253793702946847 5.720481036067426 -1.0190357972469624 1 0 0
111 0 1 -1 6.029955384715022 5.201649756721865 0.8545102467204462 0 0 0
494 0 1 -1 12.081168713605576 4.5874952820798915 -0.2556094374395661 0 0 0
788 0 2 1 21.686224728041758 6.747385073373053 -2.105931026996858 0 0 0
1176 0 1 -1 22.98986434461223 4.975765148045714 0.12089825420487799 0 0 0
207 0 1 -1 5.137868934597111 8.90227686412641 -1.7302022433773194 0 0 0
10 0 2 1 6.948205361146113 9.64163518667793 0.23253174576172153 0 0 0
493 0 1 -1 12.178115227335166 9.1484716109671 -1.7002039950973162 0 0 0
500 0 3 1 12.071890426895113 9.451851903314294 0.8366066122596427 0 0 0
878 0 1 -1 19.058400731296487 7.943852486940626 -0.9932247819567186 0 0 0
1365 0 1 -1 23.74741329559545 9.312302302262028 -0.8365430273760373 0 0 0
1262 0 1 -1 2.3834964357160136 13.365436607150995 0.5731682907535411 1 0 0
888 0 1 -1 7.912897822223553 13.870620888215255 -0.24624379373844185 0 0 0
203 0 2 1 10.80772891530895 12.043364134738539 -0.9902107733714125 0 0 0
875 0 2 1 16.733366574593468 12.729488689106661 -2.1026826425177756 0 0 0
490 0 2 1 20.240745675447045 10.996004910517623 0.07856012869693263 0 0 0
984 0 1 -1 18.13135276457031 12.617342272870362 0.8717545892961232 0 0 0
1366 0 1 -1 22.22327738164259 13.709019898198772 0.7589290685361902 0 0 0
210 0 2 1 2.599853781067578 17.141974128972336 -0.339419136817372 0 0 0
200 0 1 -1 10.808754668810643 15.054919465053429 -2.064568414087486 0 0 0
502 0 1 -1 17.62258322555079 15.446711655358017 -1.5395996154897778 0 0 0
962 0 2 1 20.571797722977834 14.937057295349033 -1.2544146349973273 0 0 0
206 0 1 -1 24.99331436457743 16.23496431593869 -1.2452843859660518 -1 0 0
216 0 1 -1 2.0955574423144805 20.01983633189004 0.08337972761360746 0 0 0
303 0 1 -1 5.975932874623304 18.645907581482106 -1.2453426681323911 0 0 0
1066 0 2 1 11.38889690031969 20.44086706150987 -1.4752060109412066 0 0 0
1061 0 1 -1 18.030062197884035 19.447122380472422 0.09545154399262223 0 0 0
1354 0 2 1 20.56781794041094 20.033423483742226 -0.9987582105114274 0 0 0
1076 0 2 1 24.248721232379324 19.734396765025096 0.2168274793393401 0 0 0
1450 0 2 1 0.025833912296271508 23.575020651526643 -0.23251962088638667 1 0 0
305 0 3 1 3.9639902638647104 20.561875495163058 -1.5534529122265308 0 0 0
312 0 1 -1 4.17336598692288 22.85592517625451 -1.9724399547452576 0 0 0
309 0 1 -1 9.199171923774385 23.078490877833445 -1.5620604355730499 0 0 0
974 0 1 -1 14.33749086982404 20.61242515391313 -1.6235450920931873 0 0 0
1360 0 1 -1 23.99055133706338 20.993602537794438 -2.141248190409528 0 0 0
11 0 2 1 8.412692446215049 25.702602172760386 -1.57590006840744 0 -1 0
678 0 1 -1 11.50589656952491 25.61134897761179 -2.0899645138233267 0 0 0
1070 0 1 -1 16.240352457958622 25.301348100618917 -1.2138628082803855 0 0 0
1068 0 2 1 19.516473227777645 25.966143485922238 -0.607512876456469 0 0 0
781 0 1 -1 22.15879872146899 24.561398654771153 -1.1967706870279669 0 -1 0
22 0 1 -1 3.9616187708686237 -1.848888935358982 3.6209402821713894 0 0 0
406 0 1 -1 13.027362562426038 -0.5264043133276299 1.609189305064393 0 0 0
787 0 3 1 14.796622565751111 0.6959086522393942 2.3798706245548216 0 0 0
887 0 1 -1 16.837990668074838 -0.5856570008511002 2.0947405498450156 0 0 0
793 0 3 1 18.256027692401943 0.617223792552954 0.9323924111900741 0 0 0
789 0 1 -1 21.091056826647545 -0.30227439189681227 0.9643622604458209 0 0 0
1167 0 1 -1 24.949578435114425 0.8408335033414129 2.4925369645516113 0 0 0
1170 0 2 1 21.815558774856527 0.3318589565427672 3.6308077343374023 0 0 0
24 0 1 -1 2.0612617849183987 3.091476043518501 1.030145062141977 0 0 0
1451 0 3 1 0.847418619160975 2.9204336037483714 3.0896737841778865 1 1 0
408 0 1 -1 6.264916325624488 1.472235252057796 2.1174889537152612 0 0 0
113 0 2 1 4.717116155732373 3.7321082165872843 2.983478071466946 0 0 0
121 0 2 1 9.277312160303557 2.001071829671652 2.4658915751178334 0 0 0
501 0 1 -1 13.801643676013956 3.22609965716077 3.421795620212192 0 0 0
509 0 1 -1 15.816603983373687 2.871468033680496 1.077790632384592 0 0 0
893 0 1 -1 19.69400291858628 2.533746280084922 2.5952055011560304 0 0 0
221 0 1 -1 3.7301769930273956 6.682849551865614 3.7132320514367425 0 0 0
498 0 2 1 7.325631369102001 6.964050353561921 3.641981756746876 0 0 0
120 0 1 -1 10.56030426806652 6.88430492038958 3.7943950621511835 0 0 0
499 0 2 1 14.51041163620131 6.272471910692746 1.8140781181819596 0 0 0
886 0 1 -1 17.197285180696312 6.381642413016783 3.551605490923226 0 0 0
1172 0 2 1 20.349166998276402 5.8442692100037 3.124640952348834 0 0 0
1361 0 2 1 24.88821761383622 7.133197024729311 1.56412287139515 0 0 0
215 0 1 -1 23.803641178889386 4.996986846308344 3.306582168880583 -1 0 0
495 0 1 -1 6.4800106571558524 10.413565191956582 3.4994058173434173 0 0 0
1261 0 1 -1 9.933272232266447 10.11902405443563 1.1589817249824765 1 0 0
975 0 1 -1 13.710596840586158 9.001017413161362 1.8940338267734882 0 0 0
107 0 2 1 17.39132071404562 9.635449452260165 2.3284880795894107 0 0 0
1272 0 1 -1 21.396328539498278 9.1452424539069 2.2619058366986904 0 0 0
876 0 2 1 24.11591900572015 10.691945723896234 1.771414189051451 0 0 0
217 0 3 1 2.0089984939061836 13.321342801472193 2.8850281299748133 0 0 0
587 0 2 1 13.781198657699527 13.688499185996392 2.559554412822947 0 0 0
1355 0 2 1 21.088012068554946 13.463477134047222 3.5050517743314433 0 0 0
1367 0 1 -1 2.4583728208887248 15.883117424508507 2.2990995421588467 1 0 0
209 0 2 1 5.02994248461487 14.260564933885993 1.8159081451049532 0 0 0
224 0 1 -1 6.384724339012151 17.14553729590564 2.4511729245000096 0 0 0
970 0 2 1 8.889270473645526 15.96428441401856 1.8129096496523438 0 0 0
597 0 1 -1 12.035951344065795 16.319001739228085 2.3588602416633684 0 0 0
595 0 2 1 18.04550775417016 15.584105359495473 1.491153779078216 0 0 0
1362 0 2 1 24.148392862185524 15.882793515293718 1.8864804527862935 0 0 0
588 0 2 1 7.053220022741982 19.75050791043953 1.400408062327898 0 0 0
214 0 1 -1 9.794064052454239 19.605882404657073 1.094302352518901 0 0 0
689 0 2 1 11.581813924417586 19.358857221316484 3.1409547686703867 0 0 0
978 0 2 1 17.705474525772047 18.62572731475891 3.531505885426718 0 0 0
1368 0 1 -1 20.210831620242423 17.342142129609158 1.9932114107559675 0 0 0
1461 0 1 -1 24.003475201480136 18.76339681032463 3.328896384682917 0 0 0
986 0 3 1 22.21002118116344 17.663108490074073 3.9514586667102343 0 0 0
302 0 1 -1 0.035654438840526895 23.089083798010762 2.6221787601193665 0 0 0
306 0 3 1 3.6551507205283493 21.143635659576454 1.973196750625191 0 0 0
407 0 1 -1 5.856085803305198 23.265545279940383 1.8160717788340834 0 -1 0
307 0 2 1 9.786940652292476 23.25837194900275 1.7568252541996765 0 0 0
600 0 1 -1 12.986714673850276 22.39835576951741 1.5049059500247353 0 0 0
980 0 2 1 16.21984532299721 21.555474428199204 1.5273024661952563 0 0 0
1078 0 1 -1 20.35204008977842 22.11221978912237 1.6166779977646781 0 0 0
1457 0 3 1 20.508186683248667 22.082768245717944 3.978470339594132 0 0 0
1364 0 2 1 1.1451602568430828 25.95593405079508 2.9721298142226313 1 0 0
308 0 2 1 6.082206073747306 26.39591515907241 1.9989023941599031 0 0 0
696 0 1 -1 9.32672692113316 26.574823899688845 1.551494172100397 0 0 0
402 0 2 1 13.699520988394399 25.384054613257113 0.9212041913650086 0 -1 0
783 0 1 -1 14.348978424904656 24.80898957009849 3.6865461281066505 0 -1 0
889 0 2 1 21.02849498040215 24.98400552237802 1.9797586950636887 0 -1 0
1175 0 1 -1 22.971155855581678 26.440653495582858 3.8304918683157876 0 -1 0
1458 0 2 1 0.46600733692256613 -0.5469074235671181 5.366821874719205 1 1 0
1180 0 2 1 5.842797360094906 0.8512972751159262 5.153203054038698 1 0 0
119 0 1 -1 9.705792325533011 -0.2269996493225681 5.265601712461578 0 0 0
1279 0 1 -1 22.431625595655156 0.8673925028996274 6.666410690875026 0 0 0
1173 0 1 -1 2.1081939365836195 2.0567455714223977 5.3321192411415925 1 0 0
118 0 1 -1 6.584598132318902 3.651964436232994 5.359815153949336 0 0 0
891 0 2 1 14.336938173982233 1.2886470890839479 6.929327290909724 0 0 0
985 0 2 1 17.92084159125185 2.9452595576590817 4.553792347027031 0 0 0
1271 0 1 -1 20.55994235732438 4.205928955291592 5.931822311031581 0 0 0
114 0 3 1 1.3785050886894352 6.522417159724762 4.338183164285454 0 0 0
1277 0 1 -1 1.1625537684660718 5.81279522562331 6.704908962876999 1 0 0
117 0 1 -1 5.684629915978883 7.137003622504336 6.43111894409604 0 0 0
220 0 2 1 3.693578418969373 4.827345638789001 6.868185028102237 0 0 0
506 0 2 1 12.084552876841967 4.8955721264490135 5.478945482159569 0 0 0
1186 0 2 1 18.405238911910004 7.488977599282958 6.4338768464281575 0 0 0
124 0 2 1 22.858378784081815 5.726422070022729 5.836000464471397 -1 0 0
1267 0 2 1 4.142871678246764 9.264524448948652 5.757190708043989 1 0 0
508 0 2 1 11.843103853715833 9.826961742330148 4.10572410764939 0 0 0
1265 0 3 1 22.002461045238803 10.369080730918629 4.509319887392321 0 0 0
1174 0 1 -1 24.930198881641374 8.046837854523712 4.164385522912559 0 0 0
1278 0 1 -1 21.51292794588276 8.598659244880409 6.090281622128387 0 0 0
979 0 2 1 0.5554514625778072 10.965456268048971 5.952901639122601 1 0 0
128 0 1 -1 3.670833757817912 12.255140220373042 4.1889567891129715 0 0 0
596 0 2 1 7.001684831016337 12.32735116212271 5.787307287961493 0 0 0
699 0 2 1 10.468323461297567 13.040140793823005 7.0442539114699105 0 0 0
503 0 1 -1 12.228410764001582 12.765042505893343 4.815023985254788 0 0 0
1280 0 1 -1 16.59524186895812 12.637800353729748 4.200412622336875 0 0 0
1375 0 1 -1 19.685161952022476 11.530424142649204 4.407880782687586 0 0 0
1266 0 3 1 18.59934216864226 13.355578061205621 5.122949260793785 0 0 0
1270 0 1 -1 24.131947868604783 12.839271880768452 4.300446165162162 0 0 0
607 0 1 -1 8.77923217716865 14.613588353949615 5.297472378457275 0 0 0
594 0 2 1 11.806131112645136 15.67304599783571 4.968324671094942 0 0 0
598 0 1 -1 17.737785288983908 15.747475354721614 4.325368057233394 0 0 0
982 0 1 -1 22.12012418323532 17.235295404350403 6.164022647344703 0 0 0
311 0 1 -1 3.018922220914928 20.503531807083952 4.342194706825595 0 0 0
1465 0 2 1 0.22356294045128366 18.801652268491672 6.430133635947586 1 0 0
313 0 2 1 4.242021856075805 17.891636215986537 4.899864045985687 0 0 0
1079 0 1 -1 15.170888321472795 20.352544108898265 4.241508207991771 0 0 0
1080 0 1 -1 19.3334844828903 20.407828725725558 5.032363945507562 0 0 0
1075 0 2 1 0.6961776109186243 22.352443088710807 5.250387918134654 1 0 0
693 0 1 -1 10.384732029671763 21.05518464601422 5.6203348538385285 0 0 0
700 0 2 1 7.5184242826760785 21.992254098176147 5.563437922509465 0 0 0
690 0 2 1 13.14329617149028 22.487578199327388 5.380083132756827 0 0 0
1169 0 2 1 16.255839322461163 21.020000328449036 7.091665664602004 0 -1 0
988 0 3 1 20.707027825618276 22.744232396178035 6.3313662321821145 0 0 0
797 0 1 -1 22.81540304072191 21.952693028157213 6.676345539470127 0 -1 0
1463 0 1 -1 0.7944785518051125 25.631384470534805 6.583329678184349 1 0 0
23 0 1 -1 6.707361533493199 24.801531893214282 5.844352209146949 0 -1 0
17 0 2 1 3.9041813500028764 25.060027440241647 6.41177159590775 0 -1 0
1074 0 3 1 8.62506175133867 26.238971893215215 5.151380788847511 0 0 0
694 0 1 -1 10.577239256463452 24.685011578851096 6.148758423904164 0 0 0
412 0 2 1 12.129552098760403 26.909100097261156 4.475874397960487 0 -1 0
785 0 2 1 16.395598470176687 26.21079924909081 5.1786248484818564 0 -1 0
800 0 1 -1 19.75383243608909 24.48458208632485 5.192976298593756 0 -1 0
1171 0 2 1 22.30332783624096 25.338686602770565 7.00441198364763 0 -1 0
1462 0 1 -1 4.157348331560812 -0.4325622329458765 7.991016601945757 1 1 0
18 0 2 1 9.848722316629962 0.050194049352570325 8.213725994870916 0 0 0
1181 0 1 -1 7.501543781497271 -1.4771172971587299 10.398636296365643 1 0 0
125 0 1 -1 12.531616477148583 -1.3733712032094822 7.411686672986811 0 0 0
424 0 1 -1 13.97568354279747 0.4295977063444463 10.136842918186709 0 0 0
794 0 3 1 16.97763701787852 0.9371403137963332 8.882488484734667 0 0 0
791 0 1 -1 17.1880866398346 -1.5964379711057317 7.559602592060832 0 0 0
796 0 2 1 20.066282749982925 0.15466581479255836 8.009516459315092 0 0 0
799 0 1 -1 18.873888976778993 0.7163972269361794 10.410970717325734 0 0 0
134 0 1 -1 0.8115007180210267 1.6754427195676653 10.111152001438123 0 0 0
778 0 3 1 8.220505291479823 3.63608665375075 7.325052817118154 0 0 0
512 0 1 -1 7.438566950267972 1.9747941121314234 8.138792479443117 0 0 0
896 0 1 -1 13.522307881509786 3.9826229775032864 7.618981961703996 0 0 0
507 0 2 1 11.739046154388083 2.562260512524693 9.427367324200143 0 0 0
1192 0 1 -1 17.713741489162594 2.566611289253135 7.428553064013302 0 0 0
1273 0 2 1 20.43528700079682 4.382839282790876 8.941929321469088 0 0 0
1363 0 2 1 24.76057707268631 2.587196599129695 7.926137227749376 0 0 0
1371 0 2 1 0.783366240416524 6.498571439438633 10.07560752600493 1 0 0
136 0 1 -1 3.7004979572010526 5.060041022049498 10.08810207970536 0 0 0
416 0 1 -1 10.132769338804197 5.180816914974233 8.688177258492715 0 0 0
132 0 2 1 7.91381364977726 7.524459586959706 8.419034772376076 0 0 0
890 0 2 1 16.280322445200802 5.503653796478755 8.090463174468297 0 0 0
1288 0 1 -1 18.597333705326328 6.732204829558341 9.494040740449737 0 0 0
1373 0 1 -1 1.7586865353142105 9.251413237972674 8.767085683949242 1 0 0
504 0 1 -1 9.731520628955462 9.806385343528358 7.436327463514662 0 0 0
604 0 2 1 11.664893940507312 7.861203417964738 8.160190938992748 0 0 0
517 0 1 -1 15.95869014819507 8.994384161555656 7.524999906941458 0 0 0
897 0 3 1 15.3850555961768 9.459796642065637 9.781327705534624 0 0 0
1276 0 2 1 19.62728406213556 9.936072263552578 9.62510789886434 0 0 0
1274 0 2 1 24.046099337874907 10.441807896333403 9.976897903923698 0 0 0
1471 0 1 -1 0.13173185122202608 12.648682593513271 8.274891419510997 1 0 0
317 0 1 -1 8.191377192579331 13.242428642061743 9.078747131428239 0 0 0
606 0 1 -1 12.79269043290365 11.692989930656628 9.080231245452493 0 0 0
882 0 2 1 14.969111334987806 12.027436765824234 7.3767727736886535 0 0 0
981 0 1 -1 17.629028381776507 12.733023350957502 8.236941114516137 0 0 0
894 0 1 -1 21.90058889210644 12.810198830787273 10.371159403705231 0 0 0
1372 0 2 1 2.435082223167849 14.167875963128564 7.327558499355748 1 0 0
1469 0 1 -1 0.5368111976868692 16.716091848596655 8.785543606067316 1 0 0
222 0 1 -1 4.005358594960948 14.769132668535386 9.914046251297753 0 0 0
315 0 2 1 7.32253332295747 16.376657697185216 8.091553941609916 0 0 0
695 0 1 -1 10.040632294621552 15.92246615707264 9.307862062663961 0 0 0
608 0 1 -1 13.157212102921456 15.731639672589443 7.749142807303329 0 0 0
1084 0 3 1 12.315921247017183 16.780719718323823 9.758333491291925 0 0 0
1369 0 2 1 17.58717334232427 15.450301432336198 7.4184712869491705 0 0 0
1370 0 2 1 22.94737224503774 14.77644121123434 8.06450264530287 0 0 0
19 0 2 1 3.3095340792320376 18.760729477488475 10.055358928483463 0 -1 0
310 0 1 -1 5.616452583691068 18.811669563203694 7.404196012039483 0 0 0
212 0 2 1 9.809421113411418 19.171359054885045 7.937393687870612 0 0 0
701 0 1 -1 12.915794560540277 19.45604025239559 7.366573033743512 0 0 0
1082 0 3 1 13.973138384920082 17.617198441461262 7.518576713939339 0 0 0
983 0 1 -1 16.188473401816942 17.969808460277797 8.968487927119583 0 0 0
691 0 2 1 21.32357257084955 19.640874915415637 7.889400816646736 0 0 0
1085 0 1 -1 1.0189761638457164 20.960716522582935 8.94483518450568 1 0 0
1460 0 3 1 2.3315351270204956 22.38466438565994 10.184096026064676 1 0 0
413 0 1 -1 8.114220338240822 21.791916574690738 8.518934983243513 0 -1 0
115 0 2 1 11.247673891300295 22.18886558979397 8.39716939732267 0 -1 0
1088 0 1 -1 14.419466316882637 23.295783084678916 8.25714089335135 0 0 0
790 0 1 -1 19.40908284717662 22.793962895901743 8.020794117796171 0 -1 0
1178 0 3 1 24.09124077612603 22.192094838520433 9.346351607494883 0 -1 0
129 0 2 1 1.815300441493913 26.85494906631942 9.647553506197735 0 -1 0
25 0 3 1 5.60172047651769 26.825865109375663 9.072267574311628 0 -1 0
320 0 1 -1 4.14338461670367 25.162338033019147 10.150605825959607 0 0 0
28 0 2 1 8.169477811278957 24.676501153637822 8.77232479320443 0 -1 0
881 0 2 1 13.295479331126367 25.201669954074205 10.23042158320122 0 -1 0
1466 0 2 1 17.08737528096914 24.914538292038365 9.518837664814928 0 0 0
40 0 1 -1 20.56166521848982 26.245571576990727 9.866890489737127 -1 -1 0
1293 0 1 -1 0.46864728703388225 -1.045359604806842 12.645662779326816 1 0 0
131 0 3 1 1.4079133674931532 0.9054036320323626 12.153702633384533 0 0 0
127 0 1 -1 3.549954105090264 -0.28959162466622956 12.715193660305438 0 0 0
123 0 2 1 5.501773114184572 1.0512571775768302 10.68425258305599 0 0 0
411 0 3 1 12.90930063378503 0.16024413502173473 12.001611528900337 0 0 0
1000 0 1 -1 12.31667020426798 -1.8058518468637201 13.06372701968672 0 1 0
1179 0 2 1 18.49183087799002 -1.4104103432338926 12.322985994133333 0 0 0
1275 0 2 1 1.9118074263295657 4.342029960734301 12.70265510014882 1 0 0
29 0 1 -1 11.66770560981619 2.1351451811025672 12.857941563997297 0 0 0
1094 0 1 -1 15.30310834132519 4.22253720299982 11.15214730124524 0 1 0
419 0 2 1 16.956847381165964 2.559845051371849 12.692482156485074 0 0 0
806 0 1 -1 23.013163495709748 4.406509307706862 10.525967695626512 0 0 0
1188 0 2 1 23.276438049906368 1.50944420190037 11.719574109149022 0 0 0
1285 0 1 -1 0.2031444983665044 7.332642350743086 12.804061805317101 1 0 0
716 0 2 1 12.914688224754453 5.643470067010256 12.151544825834801 0 1 0
900 0 2 1 17.007323055340102 6.837383376026912 11.959905282201536 0 0 0
1281 0 2 1 22.368377524286473 6.587796268828171 12.730977999832398 0 0 0
319 0 1 -1 2.9835617224304674 10.83186593605712 12.04625254443582 0 0 0
122 0 2 1 3.7011667608058847 8.038421913436013 10.842902249269024 0 0 0
520 0 1 -1 7.5663691817924565 9.342806347158593 10.757863438810066 0 0 0
904 0 1 -1 13.201585740553945 8.279704758206146 10.939477352849174 0 0 0
895 0 1 -1 17.225972113236203 9.874068019948822 12.068584581332019 0 0 0
1287 0 1 -1 21.730392711970104 9.731825119328231 11.988586178933016 0 0 0
1380 0 2 1 1.8832153046419644 13.531071008662916 11.910407157280304 1 0 0
610 0 2 1 5.88406505639013 11.904260975917751 11.82032165299363 0 0 0
505 0 2 1 10.739941869819596 11.033301220179306 10.777973059171899 0 0 0
703 0 1 -1 10.926113464268953 12.57717803594536 13.429335841245088 0 0 0
516 0 2 1 18.92500821634701 13.670660332900933 11.878135288985366 0 0 0
987 0 3 1 22.530242745459567 13.067601091133918 12.696256230556152 0 0 0
1382 0 1 -1 1.6618645078272964 16.342266157245135 12.571804663102895 1 0 0
314 0 2 1 4.7668910989188 16.305636867345825 12.933760180719947 0 0 0
601 0 3 1 9.397779446457294 14.373857247945041 10.875289890711166 0 0 0
325 0 1 -1 8.390315686855775 15.308600988834309 12.771203315877933 0 0 0
702 0 1 -1 13.49361158800216 15.783220118172894 11.989765598098533 0 0 0
705 0 2 1 10.952447314239468 16.557756581927684 12.812711678872933 0 0 0
1376 0 1 -1 19.182248895680246 16.121245670769518 10.564225134351574 0 0 0
1083 0 2 1 23.80979892269906 16.471014581701887 12.718936691043009 0 0 0
318 0 1 -1 6.251114168459983 18.545768883681582 11.771048787897143 0 0 0
403 0 2 1 14.059208006175528 18.96787847108743 10.942224283074864 0 -1 0
704 0 1 -1 10.829616991347903 19.05955882382436 10.454859310133509 0 0 0
603 0 2 1 17.817582086987024 18.164238472647817 12.076653026465028 0 0 0
1182 0 1 -1 2.9339305796414483 21.05521015665969 11.766947947398613 1 -1 0
698 0 2 1 8.187450326549172 20.73721858161963 11.15874425968103 0 0 0
798 0 1 -1 13.382645027255935 22.61098834018879 11.87820767432784 0 -1 0
707 0 2 1 10.84506567555938 22.55476161714047 13.507265212891774 0 0 0
996 0 3 1 15.648577437165892 22.96793407093682 11.830968998013944 0 0 0
992 0 1 -1 17.168419982579984 21.12501279154167 11.379714717818622 0 0 0
1081 0 2 1 19.665851792369388 22.497195470166197 11.89973236248386 0 0 0
1087 0 1 -1 22.417363443741827 22.6313785597591 10.769923977592818 0 0 0
218 0 2 1 24.774645515374388 21.66933906264879 12.686630772202015 -1 0 0
1472 0 1 -1 0.2970122187160759 24.11745903016145 10.66184020700808 1 0 0
795 0 3 1 4.647448507021347 24.99806291397158 12.483234086025256 1 -1 0
1470 0 1 -1 6.508363327781521 23.97113625888513 13.037750848551358 1 0 0
409 0 2 1 8.459271223412241 26.430834226099783 13.419695371072581 0 -1 0
32 0 1 -1 10.41249767088459 24.90254220934851 10.713989685408905 0 -1 0
1089 0 3 1 13.664920951463872 24.261372236557058 13.599673730966224 0 0 0
1086 0 1 -1 16.52523290100492 24.869250463195243 12.39021451499066 0 0 0
1177 0 2 1 22.819764364774095 26.379025781274876 11.902546868120936 0 -1 0
336 0 1 -1 2.684537170248292 -0.7997984791891852 16.446667853822582 0 1 0
33 0 2 1 5.410795919266049 0.10282340990542771 15.347668469272904 0 0 0
804 0 2 1 13.284811170919191 -0.21880795895333116 15.720209055774859 0 0 0
414 0 1 -1 16.457384350053154 0.5310767513044499 15.187465280147887 0 0 0
1190 0 1 -1 21.39871858350034 -0.33750265087175024 13.622537742780985 0 0 0
133 0 1 -1 0.231267121826301 2.128840659861339 13.8765210886352 0 0 0
425 0 2 1 2.41803191332209 2.5902317880586505 16.27203140810937 0 0 0
511 0 1 -1 7.68367359712855 1.4319987985184497 13.768351995894012 0 0 0
36 0 2 1 10.398011904693512 1.9654906122687685 15.544716953235362 0 0 0
428 0 3 1 7.526467952332014 2.5483353121405976 15.999442188565403 0 0 0
1283 0 2 1 22.99495837991016 1.6245891502083194 16.299137557208454 0 0 0
38 0 1 -1 2.3165980043998293 5.928750261470488 16.552970146385494 0 0 0
126 0 1 -1 7.387163041788657 7.077869436117519 16.25209901868484 0 0 0
30 0 1 -1 11.258072139801703 5.97267250396167 14.70757683638897 0 0 0
697 0 2 1 14.302241915789628 5.387265047940973 15.995434685834631 0 0 0
805 0 1 -1 19.440026857503995 7.067530599028933 13.902487703383137 0 0 0
1196 0 2 1 20.132020333564363 5.316101528601913 16.52665690007151 0 0 0
223 0 1 -1 22.95376487198638 4.5771819283106225 15.35041704417187 -1 0 0
1284 0 2 1 1.224077517528066 8.672958311415059 15.110487747314828 1 0 0
130 0 2 1 8.748775586526907 8.660438016819779 13.844316331603256 0 0 0
903 0 1 -1 15.078045953215401 8.046979012823675 15.424806845405232 0 0 0
1377 0 2 1 16.492763995927696 10.74329013687689 14.850095532085827 0 0 0
1289 0 2 1 21.21065632472356 10.207235163657874 15.048925658787702 0 0 0
1383 0 1 -1 23.035670772791107 8.435292555459355 16.51854958070049 0 0 0
219 0 3 1 0.8127081536001893 12.895397904293356 15.795621487080552 0 0 0
1381 0 1 -1 3.140941605375445 13.468762572333661 14.830307685096244 1 0 0
514 0 2 1 5.482681989825265 12.709447821836394 16.247767788912444 0 0 0
605 0 1 -1 7.765016733060017 11.316631821949517 14.125949918368608 0 0 0
602 0 2 1 9.705249094408542 13.341380178345851 15.80543852627785 0 0 0
1374 0 1 -1 24.283066275413923 12.69793337228023 13.807813477431697 0 0 0
1467 0 2 1 1.7846095487558344 16.43993278340767 15.50455898439365 1 0 0
994 0 2 1 14.107455277816987 14.43239811947314 14.996039456025521 0 0 0
991 0 1 -1 17.18672266778396 14.330665174334003 14.185964184630624 0 0 0
989 0 1 -1 21.19658950216715 14.805540021608264 13.840498812621064 0 0 0
993 0 2 1 18.934144542491694 16.73493862601137 14.53151258300269 0 0 0
1477 0 1 -1 4.998674184698738 17.65918459158261 15.802237308197974 1 0 0
228 0 2 1 7.973189549506735 17.31404298512868 15.08680742773592 0 0 0
613 0 1 -1 15.884548521217152 17.87294692605328 15.239683135975763 0 0 0
990 0 1 -1 19.73105366073927 19.868873737672452 13.986242986000992 0 0 0
998 0 1 -1 23.81827200209561 18.353799233959364 15.343413151725574 0 0 0
232 0 1 -1 3.2259780480207314 23.57342066370643 14.792506091310244 0 0 0
1468 0 2 1 5.04607075893705 20.87469587054582 14.077576906707257 1 0 0
27 0 2 1 7.03604956121265 23.252141981122257 15.964933401538968 0 -1 0
415 0 1 -1 8.368593016201963 21.21136142966244 14.310494384574419 0 -1 0
709 0 1 -1 14.042949697776896 22.274122106403908 14.735316075345665 0 0 0
708 0 2 1 17.2739690295042 22.100670193183845 15.223368645577015 0 0 0
1184 0 1 -1 19.698520994913515 23.631491705892564 15.50503351888122 0 -1 0
1386 0 2 1 21.707711747349542 21.394019308995468 16.196427572760168 0 0 0
26 0 2 1 1.0430595003243477 25.987571621040388 14.595897738626892 0 -1 0
1189 0 1 -1 6.441527484859408 26.323912260250935 16.1410939243709 1 -1 0