LAMMPS (29 Sep 2021 - Update 3)
OMP_NUM_THREADS environment is not set. Defaulting to 1 thread. (src/comm.cpp:98)
  using 1 OpenMP thread(s) per MPI task
Reading data file ...
  orthogonal box = (0.0000000 0.0000000 0.0000000) to (15.613400 15.650667 60.676648)
  2 by 2 by 4 MPI processor grid
  reading atoms ...
  864 atoms
Finding 1-2 1-3 1-4 neighbors ...
  special bond factors lj:    0        0        0       
  special bond factors coul:  0        0        0       
     0 = max # of 1-2 neighbors
     0 = max # of 1-3 neighbors
     0 = max # of 1-4 neighbors
     1 = max # of special neighbors
  special bonds CPU = 0.001 seconds
  read_data CPU = 0.187 seconds
Neighbor list info ...
  update every 1 steps, delay 10 steps, check yes
  max neighbors/atom: 2000, page size: 100000
  master list distance cutoff = 6.22
  ghost atom cutoff = 6.22
  binsize = 3.11, bins = 6 6 20
  1 neighbor lists, perpetual/occasional/extra = 1 0 0
  (1) pair quip, perpetual
      attributes: full, newton on
      pair build: full/bin
      stencil: full/bin/3d
      bin: standard
Setting up Verlet run ...
  Unit style    : metal
  Current step  : 0
  Time step     : 0.001
Per MPI rank memory allocation (min/avg/max) = 8.889 | 8.898 | 8.908 Mbytes
Step Temp PotEng TotEng Press Volume c_msd[4] 
       0            0    -9417.799    -9417.799   -30975.102    14826.953            0 
      10    165.55627   -9436.2929   -9417.8248   -35808.397    14826.953 0.00030948002 
      20    378.45436   -9460.0599   -9417.8428   -42850.796    14826.953 0.0037274276 
      30    405.69294   -9463.0843   -9417.8287   -44302.105    14826.953  0.012463481 
      40    392.02077   -9461.5541   -9417.8236   -44279.401    14826.953  0.024415468 
      50    417.08826   -9464.3564   -9417.8296    -45973.39    14826.953  0.036982033 
      60    420.75535   -9464.7647   -9417.8288    -47753.74    14826.953  0.049634467 
      70     407.9112   -9463.3278   -9417.8247   -49652.187    14826.953  0.062755472 
      80    419.12468   -9464.5812   -9417.8272   -52906.106    14826.953   0.07687559 
      90    432.06858   -9466.0257   -9417.8278   -56644.554    14826.953  0.092516529 
     100    437.07358   -9466.5845   -9417.8283    -59457.96    14826.953   0.10938904 
     110    434.54866   -9466.3021   -9417.8275   -61104.413    14826.953   0.12652542 
     120    434.14482   -9466.2568   -9417.8273   -62154.885    14826.953    0.1431545 
     130      439.361   -9466.8391   -9417.8277   -63630.197    14826.953   0.15919619 
     140    446.51909   -9467.6387   -9417.8289   -65558.428    14826.953   0.17463459 
     150    447.02916   -9467.6951   -9417.8283   -67360.122    14826.953   0.18924565 
     160    445.88924   -9467.5675   -9417.8279   -69292.957    14826.953   0.20295995 
     170    449.26197   -9467.9437   -9417.8279   -71767.875    14826.953   0.21606234 
     180    456.11765   -9468.7096    -9417.829   -74290.183    14826.953   0.22912636 
     190    454.43711   -9468.5223   -9417.8292    -76612.29    14826.953   0.24280842 
     200    446.62774    -9467.649    -9417.827   -78739.398    14826.953   0.25734039 
     210    454.33781   -9468.5105   -9417.8284   -80806.826    14826.953    0.2725174 
     220    466.39184   -9469.8552   -9417.8285   -82316.213    14826.953   0.28796461 
     230    478.52262   -9471.2093   -9417.8294   -82954.729    14826.953   0.30306018 
     240    481.66435   -9471.5594    -9417.829   -83195.523    14826.953   0.31749982 
     250    481.45071   -9471.5331   -9417.8266    -83193.07    14826.953   0.33144361 
     260    501.18304   -9473.7372   -9417.8295   -82982.381    14826.953   0.34536204 
     270    513.25195   -9475.0851   -9417.8311   -82417.815    14826.953   0.35987885 
     280    501.57666   -9473.7806    -9417.829   -81721.808    14826.953   0.37471171 
     290    492.47305   -9472.7646   -9417.8285   -81146.258    14826.953   0.38855622 
     300    495.01951   -9473.0493   -9417.8292   -80485.485    14826.953   0.40074053 
     310    503.02213   -9473.9419    -9417.829   -79975.837    14826.953   0.41197537 
     320    517.02716   -9475.5049   -9417.8298    -80100.53    14826.953   0.42312641 
     330    528.24549   -9476.7573   -9417.8307   -80345.683    14826.953   0.43452756 
     340    527.46021   -9476.6689   -9417.8299   -79908.329    14826.953   0.44600697 
     350    525.40472   -9476.4395   -9417.8298   -79635.847    14826.953   0.45751829 
     360    526.17025   -9476.5255   -9417.8304   -79296.551    14826.953    0.4690149 
     370    526.91272   -9476.6086   -9417.8307   -78934.771    14826.953   0.47994193 
     380    523.77443   -9476.2591   -9417.8312    -78349.26    14826.953    0.4899244 
     390    515.97368   -9475.3874   -9417.8298   -77628.832    14826.953   0.49901453 
     400    520.05492    -9475.843   -9417.8301   -77188.099    14826.953   0.50752529 
     410    532.56265   -9477.2391    -9417.831   -76589.953    14826.953   0.51614865 
     420    540.25226   -9478.0982   -9417.8322   -75877.581    14826.953   0.52551418 
     430    530.99756   -9477.0645   -9417.8309   -74960.344    14826.953   0.53577624 
     440    520.22454   -9475.8617   -9417.8299   -74047.729    14826.953   0.54643624 
     450    524.10068   -9476.2951   -9417.8308    -73298.66    14826.953   0.55673143 
     460    534.09515   -9477.4108   -9417.8316   -72760.738    14826.953   0.56614172 
     470    540.77118   -9478.1556   -9417.8317   -72524.651    14826.953   0.57446846 
     480    541.24645   -9478.2098    -9417.833   -72632.257    14826.953   0.58202651 
     490    525.98312   -9476.5055   -9417.8313   -72557.778    14826.953   0.58956581 
     500    519.29389   -9475.7579   -9417.8299   -72672.134    14826.953   0.59738896 
     510    536.84993   -9477.7197   -9417.8332   -73590.734    14826.953   0.60540983 
     520    541.07469   -9478.1913   -9417.8336   -74459.431    14826.953   0.61314596 
     530    525.46621    -9476.448   -9417.8314     -75250.3    14826.953   0.61964842 
     540    517.81909   -9475.5943   -9417.8308   -76615.008    14826.953   0.62442657 
     550    530.74801   -9477.0373   -9417.8316   -78518.677    14826.953   0.62810042 
     560    549.85385   -9479.1718   -9417.8347   -80253.367    14826.953   0.63196072 
     570    545.69369   -9478.7044   -9417.8314    -81117.21    14826.953   0.63700617 
     580    550.79507   -9479.2735   -9417.8315   -82215.551    14826.953   0.64324602 
     590    565.64388   -9480.9333   -9417.8349   -83714.176    14826.953   0.65037812 
     600    553.97462   -9479.6301   -9417.8334   -84197.142    14826.953   0.65818616 
     610    534.68082   -9477.4754   -9417.8309    -84240.65    14826.953   0.66624572 
     620    539.88467    -9478.057    -9417.832   -85068.031    14826.953   0.67443063 
     630    557.34145   -9480.0068   -9417.8345   -86385.256    14826.953   0.68307389 
     640    561.99273   -9480.5241    -9417.833   -87221.521    14826.953   0.69206136 
     650    566.38107   -9481.0145   -9417.8338   -87655.782    14826.953   0.70036908 
     660    568.86956   -9481.2918   -9417.8335    -87740.11    14826.953   0.70722977 
     670    575.19383   -9481.9963   -9417.8326   -87866.365    14826.953   0.71303183 
     680    595.54742   -9484.2684   -9417.8342   -88404.913    14826.953   0.71947662 
     690    609.98222   -9485.8807   -9417.8363   -88729.686    14826.953    0.7286457 
     700    596.15452   -9484.3367   -9417.8348   -87868.063    14826.953   0.74132924 
     710     573.7335   -9481.8333   -9417.8324   -86258.222    14826.953   0.75645284 
     720    573.70821   -9481.8317   -9417.8337   -84983.366    14826.953   0.77238493 
     730     586.6623   -9483.2786   -9417.8355   -84422.122    14826.953   0.78843572 
     740    590.84846   -9483.7457   -9417.8357   -83666.343    14826.953   0.80463072 
     750    583.49524   -9482.9245   -9417.8347    -82343.99    14826.953   0.82074782 
     760    583.95649   -9482.9744   -9417.8332   -81187.395    14826.953   0.83649385 
     770    604.11555   -9485.2273   -9417.8373   -80598.713    14826.953   0.85208187 
     780    602.14592   -9485.0071   -9417.8368   -79807.857    14826.953   0.86786713 
     790    583.15212   -9482.8843   -9417.8328   -79182.757    14826.953   0.88337328 
     800    591.98235   -9483.8727   -9417.8362    -79217.67    14826.953   0.89779065 
     810     593.6376   -9484.0604   -9417.8392   -78586.479    14826.953   0.91096518 
     820    564.19404    -9480.769   -9417.8323   -76887.536    14826.953   0.92230305 
     830    578.29071   -9482.3435   -9417.8343    -76070.66    14826.953   0.93079609 
     840    620.21177   -9487.0247   -9417.8391   -76615.231    14826.953   0.93735222 
     850    635.72143   -9488.7531   -9417.8374   -76706.283    14826.953   0.94395854 
     860    638.46305   -9489.0584   -9417.8369   -76335.754    14826.953    0.9515297 
     870    639.16227   -9489.1369   -9417.8374   -76423.443    14826.953   0.96015894 
     880    632.78052   -9488.4255   -9417.8379    -76496.29    14826.953   0.96986761 
     890    619.52962   -9486.9443   -9417.8348   -76440.217    14826.953   0.98065907 
     900    631.58349   -9488.2902   -9417.8361   -77290.162    14826.953   0.99283193 
     910    659.71446   -9491.4297   -9417.8375   -78626.622    14826.953    1.0074175 
     920    682.68232   -9493.9925   -9417.8382   -79649.341    14826.953     1.025539 
     930    692.81423   -9495.1224   -9417.8379   -80089.571    14826.953    1.0472636 
     940    693.68664   -9495.2193   -9417.8375   -80244.074    14826.953    1.0718362 
     950     697.6853   -9495.6642   -9417.8364   -80549.347    14826.953    1.0985217 
     960    720.55047   -9498.2165    -9417.838   -81100.976    14826.953    1.1269795 
     970    736.50661   -9500.0011   -9417.8427   -81178.831    14826.953    1.1574498 
     980    709.64481   -9496.9987   -9417.8368   -80198.822    14826.953    1.1900413 
     990    699.67715   -9495.8872   -9417.8372   -80141.397    14826.953    1.2238706 
    1000    721.55559   -9498.3287    -9417.838   -81850.645    14826.953    1.2577136 
    1010    753.07988   -9501.8503   -9417.8431   -83180.243    14826.953    1.2911781 
    1020      745.493   -9501.0009   -9417.8401   -82863.976    14826.953    1.3253393 
    1030    733.65366   -9499.6762    -9417.836   -82639.661    14826.953    1.3609259 
    1040    758.67379   -9502.4737   -9417.8425   -83602.278    14826.953     1.397925 
    1050    756.83368   -9502.2682   -9417.8422   -83730.377    14826.953    1.4364633 
    1060    728.60541   -9499.1145   -9417.8375   -82787.476    14826.953    1.4761865 
    1070    732.87934   -9499.5908    -9417.837   -82732.658    14826.953    1.5166131 
    1080    772.96075   -9504.0683   -9417.8434   -84026.785    14826.953     1.557623 
    1090    781.69039   -9505.0406   -9417.8419   -84442.056    14826.953    1.5996324 
    1100    771.56221   -9503.9052   -9417.8363   -84299.214    14826.953    1.6430538 
    1110    801.54413   -9507.2546   -9417.8412   -84972.703    14826.953    1.6886146 
    1120    823.54281   -9509.7109   -9417.8435   -85496.656    14826.953    1.7387343 
    1130     822.5412   -9509.5935   -9417.8378   -84712.521    14826.953    1.7953724 
    1140    852.09877   -9512.8966   -9417.8437   -84635.582    14826.953    1.8578542 
    1150    856.32238   -9513.3687   -9417.8447   -83808.928    14826.953    1.9247272 
    1160    829.16843   -9510.3332   -9417.8382   -82252.194    14826.953    1.9939774 
    1170    841.50467   -9511.7132   -9417.8421   -82218.858    14826.953    2.0635991 
    1180    862.29463   -9514.0344   -9417.8441    -82731.26    14826.953    2.1335867 
    1190    866.74056   -9514.5296   -9417.8434   -81686.997    14826.953    2.2053203 
    1200       872.69    -9515.192   -9417.8421   -80417.058    14826.953    2.2796571 
    1210    894.17681   -9517.5923   -9417.8456   -80254.886    14826.953    2.3566684 
    1220    898.69177    -9518.094   -9417.8436   -80269.089    14826.953    2.4365388 
    1230    902.65555   -9518.5356   -9417.8431   -79919.279    14826.953     2.518764 
    1240    911.76859   -9519.5544   -9417.8452   -78985.613    14826.953    2.6023137 
    1250    918.59896   -9520.3146   -9417.8435   -76973.171    14826.953    2.6875029 
    1260    941.81665   -9522.9069   -9417.8458   -75160.665    14826.953    2.7758222 
    1270     961.5063   -9525.1039   -9417.8464   -73045.867    14826.953    2.8682405 
    1280    975.25968   -9526.6366   -9417.8449   -70472.054    14826.953    2.9648404 
    1290    1001.7621   -9529.5952   -9417.8471   -69578.057    14826.953    3.0655448 
    1300    1017.6288   -9531.3669   -9417.8489   -68777.285    14826.953    3.1701834 
    1310     1014.471   -9531.0095   -9417.8438   -66497.248    14826.953    3.2777376 
    1320    1037.6476   -9533.6011     -9417.85   -64366.582    14826.953    3.3877913 
    1330    1036.1698   -9533.4336   -9417.8473   -62062.663    14826.953    3.5023518 
    1340    1033.7099   -9533.1571   -9417.8452   -59413.385    14826.953    3.6220509 
    1350    1054.8214   -9535.5189   -9417.8519   -57213.004    14826.953    3.7454243 
    1360    1037.5641   -9533.5912   -9417.8494   -54687.928    14826.953    3.8711956 
    1370    1024.3347   -9532.1105   -9417.8444   -51863.642    14826.953    3.9979351 
    1380    1062.9789   -9536.4316   -9417.8547   -49837.894    14826.953    4.1246204 
    1390    1057.5859    -9535.828   -9417.8527   -47126.721    14826.953    4.2515344 
    1400    1031.7037   -9532.9346   -9417.8465   -44628.045    14826.953    4.3784738 
    1410    1045.5289   -9534.4845   -9417.8542   -43213.649    14826.953    4.5048283 
    1420    1036.1371   -9533.4348   -9417.8521   -40686.938    14826.953    4.6299533 
    1430    1013.3873   -9530.8963   -9417.8514   -37037.959    14826.953    4.7524242 
    1440    1009.9024   -9530.5043   -9417.8482   -34353.771    14826.953    4.8714929 
    1450      1045.07    -9534.436   -9417.8569   -32718.717    14826.953     4.987903 
    1460     1044.846   -9534.4069   -9417.8527   -30915.035    14826.953    5.1042348 
    1470    1040.0569   -9533.8734   -9417.8535   -30330.474    14826.953    5.2222883 
    1480    1033.2322   -9533.1134   -9417.8548   -30604.537    14826.953    5.3412471 
    1490    1017.9278   -9531.4016   -9417.8502   -29807.511    14826.953    5.4578543 
    1500    1040.2213   -9533.8955   -9417.8572   -28131.475    14826.953    5.5684253 
    1510    1039.3849   -9533.8003   -9417.8554   -25914.416    14826.953    5.6718067 
    1520    1029.0609   -9532.6473    -9417.854   -24594.464    14826.953    5.7682644 
    1530    1031.5004   -9532.9233   -9417.8579   -24254.573    14826.953    5.8578573 
    1540    1019.0107   -9531.5253   -9417.8532   -23531.216    14826.953    5.9413335 
    1550    1035.4455    -9533.363   -9417.8575   -23504.541    14826.953    6.0203438 
    1560    1050.1303   -9535.0005   -9417.8569    -23102.24    14826.953    6.0964063 
    1570     1053.806   -9535.4108   -9417.8571   -22678.296    14826.953    6.1693718 
    1580     1061.119   -9536.2243   -9417.8549   -21883.077    14826.953     6.236789 
    1590    1088.5999   -9539.2973   -9417.8624   -21917.761    14826.953    6.2959336 
    1600      1067.89   -9536.9845   -9417.8598   -22163.429    14826.953    6.3467449 
    1610    1035.4961   -9533.3641    -9417.853   -23136.244    14826.953    6.3901828 
    1620    1056.7784   -9535.7458   -9417.8606   -24690.284    14826.953    6.4275988 
    1630    1066.5554   -9536.8339   -9417.8581   -25692.824    14826.953    6.4607565 
    1640    1082.2069   -9538.5786   -9417.8568   -26490.679    14826.953    6.4897954 
    1650    1116.1576   -9542.3698   -9417.8608   -28025.498    14826.953    6.5134721 
    1660    1130.4022   -9543.9576   -9417.8596   -28776.295    14826.953    6.5310838 
    1670    1144.7697   -9545.5608     -9417.86   -30173.707    14826.953    6.5431878 
    1680    1161.8103    -9547.465   -9417.8633   -32505.604    14826.953    6.5523479 
    1690    1144.3333   -9545.5114   -9417.8593    -33279.31    14826.953    6.5616337 
    1700    1136.3544   -9544.6191    -9417.857   -33690.837    14826.953    6.5724324 
    1710    1176.6035   -9549.1142   -9417.8623   -37361.619    14826.953    6.5842075 
    1720    1198.4999   -9551.5635   -9417.8691   -40786.714    14826.953    6.5951801 
    1730    1154.0225   -9546.5909    -9417.858    -41380.84    14826.953    6.6025599 
    1740    1162.4697   -9547.5365   -9417.8612   -42122.661    14826.953    6.6035206 
    1750    1217.5958   -9553.6894   -9417.8648   -44095.184    14826.953    6.5987402 
    1760    1258.0248   -9558.2033   -9417.8687   -46540.118    14826.953     6.591658 
    1770    1236.8678   -9555.8357   -9417.8612   -48451.256    14826.953    6.5846594 
    1780    1229.6407   -9555.0271   -9417.8588   -50743.073    14826.953    6.5769021 
    1790    1262.7885   -9558.7348   -9417.8689   -53292.589    14826.953    6.5687005 
    1800    1252.0625   -9557.5318   -9417.8623   -54893.743    14826.953    6.5624205 
    1810    1246.8613   -9556.9532   -9417.8639   -56632.643    14826.953    6.5581611 
    1820    1242.3945   -9556.4566   -9417.8657   -58535.832    14826.953    6.5543941 
    1830    1221.3702    -9554.109   -9417.8634   -60009.412    14826.953    6.5499057 
    1840    1212.9357   -9553.1643   -9417.8595   -61556.573    14826.953    6.5428348 
    1850    1263.9969   -9558.8674   -9417.8667   -65435.852    14826.953    6.5324408 
    1860    1285.5884   -9561.2846   -9417.8753    -68660.14    14826.953    6.5212296 
    1870    1214.4221   -9553.3281   -9417.8575   -67913.202    14826.953    6.5108613 
    1880    1240.7292   -9556.2712    -9417.866   -69208.737    14826.953    6.4995978 
    1890    1270.4483   -9559.6022   -9417.8818   -71282.098    14826.953    6.4880409 
    1900    1157.8079   -9547.0093   -9417.8541   -70763.972    14826.953    6.4774151 
    1910     1166.235     -9547.96   -9417.8648   -72850.327    14826.953    6.4654768 
    1920    1214.5736   -9553.3625    -9417.875   -76494.653    14826.953    6.4516584 
    1930    1182.0419   -9549.7195   -9417.8609   -76455.664    14826.953    6.4355978 
    1940    1204.4023   -9552.2203   -9417.8674   -75958.225    14826.953    6.4157942 
    1950    1226.3694   -9554.6747   -9417.8713   -74838.153    14826.953    6.3937969 
    1960    1204.4092   -9552.2146   -9417.8609   -73367.437    14826.953    6.3721901 
    1970    1239.3277   -9556.1157   -9417.8668   -73666.391    14826.953    6.3514773 
    1980    1264.3958   -9558.9153     -9417.87   -74700.467    14826.953    6.3312291 
    1990     1229.627   -9555.0308    -9417.864   -74940.507    14826.953    6.3107868 
    2000    1194.8681   -9551.1533   -9417.8639   -75555.459    14826.953    6.2895403 
Loop time of 1663.91 on 16 procs for 2000 steps with 864 atoms

Performance: 0.104 ns/day, 231.099 hours/ns, 1.202 timesteps/s
95.7% CPU use with 16 MPI tasks x 1 OpenMP threads

MPI task timing breakdown:
Section |  min time  |  avg time  |  max time  |%varavg| %total
---------------------------------------------------------------
Pair    | 1241.1     | 1392.2     | 1620.6     | 337.8 | 83.67
Bond    | 0.00014734 | 0.00038353 | 0.00084114 |   0.0 |  0.00
Neigh   | 0.025729   | 0.032497   | 0.043385   |   3.3 |  0.00
Comm    | 42.875     | 268.26     | 418.16     | 762.0 | 16.12
Output  | 0.15639    | 1.7008     | 5.5051     | 170.1 |  0.10
Modify  | 0.0088294  | 0.010424   | 0.011796   |   0.7 |  0.00
Other   |            | 1.711      |            |       |  0.10

Nlocal:        54.0000 ave          65 max          37 min
Histogram: 1 0 3 1 3 0 0 0 4 4
Nghost:        616.312 ave         727 max         487 min
Histogram: 4 3 1 0 0 0 0 0 0 8
Neighs:         0.00000 ave           0 max           0 min
Histogram: 16 0 0 0 0 0 0 0 0 0
FullNghs:      3255.38 ave        4280 max        2032 min
Histogram: 1 3 4 0 0 0 0 0 3 5

Total # of neighbors = 52086
Ave neighs/atom = 60.284722
Ave special neighs/atom = 0.0000000
Neighbor list builds = 199
Dangerous builds = 198
Setting up Verlet run ...
  Unit style    : metal
  Current step  : 2000
  Time step     : 0.001
Per MPI rank memory allocation (min/avg/max) = 8.898 | 8.906 | 8.912 Mbytes
Step Temp PotEng TotEng Press Volume c_msd[4] 
    2000         1200   -9551.1533   -9417.2915   -75514.219    14826.953    6.2895403 
    2010    1163.7974   -9548.1207   -9418.2974   -72740.405    14809.738    6.2759816 
    2020    1148.4309   -9549.1751   -9421.0659   -66213.736    14759.419    6.2454767 
    2030     1146.614   -9552.8307   -9424.9242   -56609.792    14679.714    6.2040272 
    2040    1215.1736    -9564.723   -9429.1686   -47097.739     14576.58    6.1580779 
    2050    1279.6984   -9576.0254   -9433.2731   -36714.406    14457.352    6.1128556 
    2060    1290.2191   -9580.6734   -9436.7475   -23755.715    14330.718    6.0719343 
    2070    1311.7454   -9585.6019   -9439.2747   -10165.138     14206.34    6.0394334 
    2080    1345.5195    -9591.071   -9440.9763    2345.5568     14092.78    6.0214439 
    2090     1338.888   -9591.4738   -9442.1188    14009.637    13995.912    6.0224764 
    2100    1339.9607   -9592.5392   -9443.0645    22324.595    13918.813    6.0428648 
    2110    1360.5738   -9596.0601    -9444.286    26926.338    13861.778      6.07981 
    2120    1353.2286   -9596.8864   -9445.9317    29891.088     13823.21    6.1289091 
    2130    1333.6787   -9596.5169    -9447.743    29727.397    13801.011    6.1854407 
    2140    1359.9389   -9601.2775   -9449.5743    25386.891    13792.553    6.2480773 
    2150    1346.4777   -9601.4804   -9451.2788    21147.618    13794.601    6.3177038 
    2160    1269.2472   -9594.2757   -9452.6893     19099.74    13804.572    6.3906368 
    2170    1257.5564   -9594.0884   -9453.8061    15022.455    13820.892    6.4604741 
    2180    1329.3163   -9603.1095   -9454.8222     8192.505    13841.649    6.5231775 
    2190    1340.5198   -9605.4432   -9455.9062    2082.0431    13864.177    6.5769902 
    2200     1301.341   -9602.2407   -9457.0741   -2246.8331    13886.173    6.6215322 
    2210     1297.063   -9602.9763    -9458.287   -6378.2947    13906.047    6.6569822 
    2220    1329.3945   -9607.9096   -9459.6136   -12320.356    13922.274    6.6830729 
    2230    1320.7453   -9608.4431    -9461.112   -17526.256    13932.852    6.6972929 
    2240    1308.3408    -9608.713   -9462.7656   -21197.419    13936.041    6.6961174 
    2250    1329.5791   -9612.9144   -9464.5978   -25168.518    13930.635    6.6771876 
    2260    1350.5772   -9617.3604   -9466.7015   -27975.317    13915.489    6.6394664 
    2270    1358.2978   -9620.6419   -9469.1217   -28260.174    13889.971    6.5836745 
    2280    1326.4042   -9619.6773    -9471.715   -23993.789    13854.558    6.5123908 
    2290    1317.8423   -9621.2215   -9474.2142   -19727.466    13811.288     6.430548 
    2300    1376.8062   -9630.3284   -9476.7436    -19346.95    13762.169    6.3440569 
    2310    1377.3005   -9633.0333   -9479.3933    -16281.65    13708.114    6.2577973 
    2320    1366.4372   -9634.4224   -9481.9943   -11137.722    13650.756    6.1743647 
    2330    1388.5365   -9639.4089   -9484.5156   -6775.8347    13592.402    6.0956129 
    2340    1406.0438   -9643.8268   -9486.9805   -3351.6831    13535.053    6.0234543 
    2350    1467.6595    -9653.252   -9489.5324   -1760.0872    13480.104     5.958306 
    2360      1548.28   -9665.1252   -9492.4123   -75.048167    13428.202    5.9014138 
    2370    1535.8637   -9666.8863   -9495.5584    4692.8444    13380.017    5.8568006 
    2380    1503.8481   -9666.3319   -9498.5754    10228.254    13337.039    5.8276481 
    2390    1576.7381    -9677.519   -9501.6315    12988.602     13300.77    5.8143894 
    2400    1563.1387   -9679.2423   -9504.8718    16689.994    13271.841     5.815482 
    2410     1599.926   -9686.7565   -9508.2824    18884.564    13250.882    5.8277279 
    2420    1611.8245   -9691.8407   -9512.0392     19392.92    13238.054    5.8507729 
    2430    1539.5958   -9687.6155   -9515.8713    18067.229    13232.935    5.8848649 
    2440    1538.0121   -9691.2232   -9519.6556    12909.255     13234.43    5.9276322 
    2450    1537.8065   -9694.9998   -9523.4552     6844.715    13240.381    5.9761291 
    2460    1522.9981    -9697.145   -9527.2523    947.30066    13248.382    6.0262172 
    2470    1499.8823   -9698.3084   -9530.9943   -4629.0489    13256.228    6.0724917 
    2480    1485.6108   -9700.3757   -9534.6536   -9089.9883    13261.994    6.1107861 
    2490    1508.1113   -9706.5379   -9538.3058   -12791.807    13264.212    6.1391373 
    2500    1551.6043   -9715.2595   -9542.1757   -15832.282     13261.74    6.1583885 
    2510    1523.3468   -9716.1622   -9546.2306   -14661.694    13253.905    6.1704568 
    2520    1516.3352    -9719.431   -9550.2816   -11687.651    13241.314    6.1746454 
    2530     1531.197   -9725.2055   -9554.3982   -7783.2122    13225.272    6.1721887 
    2540    1481.2769   -9723.6659   -9558.4273   -3194.9674    13207.387    6.1675984 
    2550    1524.7811   -9732.4759   -9562.3843    -3090.724    13189.181    6.1625736 
    2560    1575.2981     -9742.36   -9566.6331   -4130.6145    13170.804    6.1567369 
    2570    1503.7393    -9738.709   -9570.9646   -2063.0819     13152.06    6.1490526 
    2580    1481.0728   -9740.3257   -9575.1098    -399.0189    13133.551    6.1373048 
    2590    1499.1429    -9746.476   -9579.2444     1798.916    13115.882    6.1208669 
    2600    1468.3641   -9747.1619   -9583.3636    6328.3055     13099.85     6.101003 
    2610    1430.0163   -9746.8422   -9587.3218    10199.405    13086.853    6.0784338 
    2620    1446.5748   -9752.5477   -9591.1801    10223.408    13077.986    6.0527299 
    2630    1474.7194   -9759.6183   -9595.1112    7500.1921     13073.05    6.0237044 
    2640    1489.7065   -9765.3598   -9599.1808    6029.5221    13071.022    5.9934192 
    2650    1479.2949   -9768.2941   -9603.2765    5306.0256    13071.205     5.966508 
    2660    1499.9835   -9774.6217   -9607.2963    5165.7354    13073.264    5.9462383 
    2670    1524.3431   -9781.4218    -9611.379    3428.3119    13076.956    5.9341487 
    2680    1489.4265   -9781.6066   -9615.4588    1589.9072    13081.651    5.9313438 
    2690    1513.1792   -9788.3623   -9619.5648   -628.38165    13086.626     5.938221 
    2700    1493.2239   -9790.3452   -9623.7738   -1872.8117    13091.139    5.9538198 
    2710    1416.6567   -9785.8395   -9627.8093   -839.62323    13094.846    5.9742084 
    2720     1422.362   -9790.2975   -9631.6308    -1381.594    13098.027     5.995138 
    2730    1475.2689   -9800.0919   -9635.5234     -3777.37    13100.514    6.0159269 
    2740    1443.5178   -9800.5885   -9639.5619   -4291.7324    13101.623     6.037826 
    2750     1363.506   -9795.4751    -9643.374    -5323.359    13101.153    6.0606103 
    2760    1351.8849   -9797.7215   -9646.9167   -6914.2849    13098.832    6.0820587 
    2770    1316.1782   -9797.0321   -9650.2104   -7362.2786    13094.251    6.0995241 
    2780     1368.054   -9806.0016   -9653.3931   -8727.4933    13087.283    6.1111853 
    2790    1409.0652   -9813.9538   -9656.7704   -7886.6584    13077.674    6.1200945 
    2800    1355.8223   -9811.4083   -9660.1643   -3234.1319    13065.903    6.1294317 
    2810    1355.5793   -9814.6697   -9663.4528   -167.26494    13053.498    6.1384291 
    2820    1305.0728     -9812.22   -9666.6371    2737.3933     13041.62    6.1460407 
    2830    1253.7289   -9809.3663   -9669.5109    5166.8649    13031.246    6.1528831 
    2840    1295.1916   -9816.7297   -9672.2492    4370.2742    13023.049    6.1620929 
    2850    1293.1781   -9819.2258   -9674.9699    4776.4183    13016.792    6.1771223 
    2860    1281.3811   -9820.5508   -9677.6109    6513.4061      13012.5     6.197738 
    2870    1274.3468   -9822.3458   -9680.1904    8410.1397    13010.659    6.2206514 
    2880    1271.8291   -9824.5898   -9682.7153    7397.0287    13011.721    6.2414953 
    2890     1252.501   -9824.9318   -9685.2134    5547.2144    13015.297    6.2571489 
    2900    1215.3079   -9823.0979   -9687.5284    3439.2413    13020.657    6.2673791 
    2910    1240.3643   -9828.1115    -9689.747   -464.92748    13026.948    6.2749474 
    2920     1193.672   -9825.0028   -9691.8469   -2338.0041    13032.903    6.2831047 
    2930    1162.0014   -9823.3537   -9693.7307   -3111.3974    13037.838    6.2921172 
    2940    1189.1961   -9828.1274   -9695.4707   -3976.9758    13041.488     6.300967 
    2950    1190.3641   -9829.9132   -9697.1263   -4074.9669    13043.637    6.3087452 
    2960    1177.2034   -9829.9937   -9698.6749   -2892.9108    13044.336    6.3162154 
    2970    1195.3287   -9833.4779   -9700.1372   -2359.8297    13043.962     6.325011 
    2980     1205.285   -9836.0113     -9701.56   -99.885446    13042.846    6.3353124 
    2990    1178.6779   -9834.4137   -9702.9304    2030.2483    13041.727    6.3460236 
    3000    1186.6207   -9836.5656   -9704.1963    1607.5616    13041.295    6.3569641 
    3010    1199.4522   -9839.2315   -9705.4308    659.28589    13041.438    6.3697706 
    3020    1115.5963   -9831.0064   -9706.5599    2385.2481    13041.914    6.3855009 
    3030    1094.8328   -9829.5909   -9707.4606    2324.5523    13043.142      6.40206 
    3040    1184.2271   -9840.3252   -9708.2228    471.26819    13045.089    6.4185167 
    3050    1203.4115   -9843.1829   -9708.9405   -199.30897    13047.181    6.4368766 
    3060    1202.9784   -9843.8805   -9709.6865     -577.299    13049.144    6.4579762 
    3070    1146.8428   -9838.3244   -9710.3924   -979.48514    13050.847    6.4821729 
    3080    1100.5069    -9833.711   -9710.9478   -2018.3926    13052.134     6.508501 
    3090    1129.9588   -9837.3724   -9711.3238   -3068.3627    13052.684     6.535263 
    3100    1144.9461   -9839.2597   -9711.5392   -1756.3567    13052.227    6.5613095 
    3110    1131.2002   -9837.8072   -9711.6202   -155.73243    13051.173    6.5855848 
    3120    1135.6514   -9838.2462   -9711.5626    94.431125    13050.053    6.6079964 
    3130    1168.6555   -9841.7568   -9711.3915   -219.94349     13048.97    6.6305411 
    3140    1128.4235   -9836.9931   -9711.1157    1503.5056    13047.922    6.6556871 
    3150     1114.695   -9835.0558   -9710.7099    1416.5537     13047.38    6.6822399 
    3160    1181.6768   -9841.9685   -9710.1507    -657.5573    13047.295     6.707603 
    3170    1149.7192     -9837.74   -9709.4871    1717.7364    13047.136    6.7319271 
    3180    1143.3189   -9836.2982   -9708.7592    3134.4506    13047.526    6.7553833 
    3190    1194.1349   -9841.1311   -9707.9236    1615.2005    13048.905     6.777927 
    3200    1131.3286   -9833.2223   -9707.0209    2538.1315    13050.924    6.8001673 
    3210    1156.2041   -9835.0413    -9706.065    1746.4238    13053.723    6.8227821 
    3220    1215.8345   -9840.6145   -9704.9863   -310.67076    13057.007    6.8487075 
    3230    1173.7269   -9834.8437   -9703.9127    1047.0409    13060.213    6.8803496 
    3240    1129.9554   -9828.9028   -9702.8545    1600.2999    13063.655    6.9157569 
    3250    1165.1699   -9831.6678   -9701.6914    583.98754    13067.526    6.9498826 
    3260    1225.7956   -9837.1671   -9700.4277    -1495.434    13071.469    6.9796601 
    3270    1240.2151   -9837.5443   -9699.1964   -1175.8554    13074.846    7.0065372 
    3280    1192.7513   -9831.1315   -9698.0783    2341.0383    13077.829    7.0348128 
    3290    1218.5538   -9832.9644   -9697.0329    3447.7008    13081.487    7.0672387 
    3300     1242.026   -9834.5572   -9696.0073    2734.2618    13086.237    7.1039778 
    3310    1269.9065   -9836.7345   -9695.0745    1026.5697    13091.811    7.1425468 
    3320    1286.3922   -9837.7757   -9694.2767   -60.539127    13097.643    7.1796064 
    3330    1269.7598   -9835.3146    -9693.671   -174.03266    13103.361    7.2121111 
    3340    1259.8774   -9833.7769   -9693.2357   -2511.9788     13108.82     7.238753 
    3350    1280.7353   -9835.8126   -9692.9447   -6858.8461    13113.207    7.2604118 
    3360    1256.1622   -9832.9495   -9692.8227   -9029.9474    13115.136    7.2779494 
    3370    1244.7971   -9831.7264   -9692.8675   -9316.9151    13113.857    7.2894557 
    3380    1267.0353   -9834.4158   -9693.0761   -7034.2827    13109.372     7.293684 
    3390    1198.2564   -9827.0383    -9693.371   -1282.0776    13102.605     7.293296 
    3400    1203.6715   -9827.9479   -9693.6766    2444.6949    13095.477    7.2917022 
    3410    1239.1639   -9832.2113   -9693.9807    4285.6278    13089.363    7.2913205 
    3420    1271.2632   -9836.2019   -9694.3906    4802.5577    13084.879    7.2914172 
    3430    1282.2115   -9838.0134   -9694.9808    4563.2643    13082.182    7.2890758 
    3440    1263.7401   -9836.7297   -9695.7576    5374.3339    13081.193    7.2836949 
    3450    1227.5308   -9833.5675   -9696.6346    6788.1144    13082.156    7.2791925 
    3460    1209.8775   -9832.5199   -9697.5562    7484.4039    13085.497    7.2806401 
    3470    1227.0116   -9835.3953   -9698.5204    6368.8134    13091.375    7.2915712 
    3480    1227.7395   -9836.5024   -9699.5462     4150.656    13099.353    7.3130649 
    3490    1197.5088   -9834.1609    -9700.577    3188.7596    13108.714    7.3432093 
    3500    1205.5379    -9836.078   -9701.5985     1566.804    13119.004    7.3787633 
    3510    1212.8119   -9837.9251   -9702.6342    165.73984    13129.652    7.4179996 
    3520    1189.4303   -9836.3428   -9703.6601   -804.75013    13140.174    7.4592081 
    3530    1232.7076   -9842.1775   -9704.6671   -5840.3888    13150.064    7.4997526 
    3540    1253.1465   -9845.5269   -9705.7365   -11137.189    13157.657    7.5391284 
    3550    1170.5242   -9837.4071   -9706.8334    -11391.89    13161.277     7.578547 
    3560    1150.4316   -9836.1819   -9707.8496   -9461.3874    13160.807    7.6177126 
    3570    1208.6968   -9843.6756   -9708.8437   -7183.3462     13156.94     7.656091 
    3580     1151.781   -9838.2807   -9709.7978   -1778.9065    13150.684    7.6932799 
    3590    1094.4383   -9832.6329   -9710.5467    2806.2006    13143.903    7.7277225 
    3600    1164.9377   -9841.0681   -9711.1175    2298.8636    13138.098    7.7586633 
    3610    1199.6795   -9845.4428   -9711.6167    1486.5148    13133.236    7.7866185 
    3620      1191.54   -9845.0267   -9712.1086    1920.1428     13129.05    7.8135655 
    3630    1149.2759   -9840.7361   -9712.5326     1899.782    13125.619    7.8423284 
    3640    1134.4035   -9839.3657   -9712.8213    2507.5427    13122.971    7.8724148 
    3650    1136.5137   -9839.7711   -9712.9912    2911.9509    13121.259    7.9012953 
    3660    1110.6553   -9836.9002   -9713.0049    2951.8125    13120.613    7.9274982 
    3670    1183.9219    -9844.954   -9712.8857    1133.7035    13120.965    7.9501392 
    3680     1205.232   -9847.1429   -9712.6974    834.49007    13121.763    7.9716698 
    3690    1144.4378   -9840.1718   -9712.5081    2561.8233    13122.931    7.9935959 
    3700    1132.5913   -9838.5721   -9712.2298    2360.6567    13124.942    8.0118602 
    3710    1217.5858   -9847.6675   -9711.8439    87.314586    13127.666    8.0218381 
    3720    1198.7755   -9845.1682   -9711.4429    1924.5688    13130.521    8.0232276 
    3730    1136.9648   -9837.8909   -9711.0607    3718.1099     13133.99    8.0189969 
    3740    1141.4478   -9837.9084   -9710.5782    1667.6271    13138.589    8.0147813 
    3750      1168.73    -9840.332   -9709.9584   -904.92302    13143.704     8.014707 
    3760    1182.5491   -9841.1686   -9709.2535   -2966.5323    13148.438      8.01935 
    3770    1191.4961   -9841.4231   -9708.5099   -4264.3526    13152.051    8.0268805 
    3780    1189.6978   -9840.4505   -9707.7379    -4349.084    13154.095    8.0341579 
    3790    1187.3836   -9839.3919   -9706.9375   -5094.9641    13154.511    8.0379439 
    3800    1241.7582    -9844.634    -9706.114   -6502.4915    13153.076    8.0376773 
    3810    1270.9646   -9847.1297   -9705.3517   -4180.2693     13149.46    8.0368852 
    3820    1161.6371    -9834.285   -9704.7027    2532.7506    13144.571    8.0379684 
    3830    1166.8895   -9834.2295   -9704.0612    4932.8615    13140.542    8.0398605 
    3840    1224.7894    -9839.968   -9703.3409    3587.8522    13138.229    8.0438791 
    3850    1191.4011   -9835.5432   -9702.6406    4889.7899     13137.34    8.0518739 
    3860    1219.3828   -9838.0059   -9701.9819    6119.7676    13138.207    8.0629422 
    3870    1260.4522   -9841.9662   -9701.3608    6136.3527     13141.22    8.0771987 
    3880    1236.1216   -9838.7427   -9700.8515    5985.3392    13146.401    8.0970503 
    3890    1242.2879   -9839.0463   -9700.4672    4800.2783    13153.615    8.1244998 
    3900    1227.4035   -9837.0875   -9700.1688    3668.7006    13162.464    8.1592217 
    3910    1199.1468   -9833.6956   -9699.9289    1796.7248    13172.486    8.1977565 
    3920    1195.2176   -9833.0077   -9699.6794   -1659.7103    13182.955    8.2375379 
    3930    1212.5384   -9834.6624   -9699.4019   -4983.2226    13192.687     8.277989 
    3940    1229.7747   -9836.3155   -9699.1323   -6398.7164    13200.548    8.3178582 
    3950    1227.5388   -9835.8543   -9698.9205   -6558.4292    13206.008    8.3553709 
    3960    1220.5384   -9834.9392   -9698.7863   -5785.9234    13209.048    8.3897006 
    3970    1210.6216   -9833.7565   -9698.7099   -5533.5381    13209.928    8.4209458 
    3980    1222.6534   -9835.0677   -9698.6789   -5198.7688    13208.797    8.4483711 
    3990     1240.653   -9837.1044   -9698.7077   -3496.4288    13205.848    8.4715495 
    4000    1247.5875   -9837.9998   -9698.8296   -2802.0665    13201.654    8.4910981 
    4010    1235.3071    -9836.854   -9699.0537   -3105.9328    13196.499    8.5076537 
    4020    1208.5952   -9834.1682   -9699.3476   -2951.2404    13190.326    8.5232558 
    4030    1200.9226   -9833.6367    -9699.672      -2873.2    13183.163    8.5389962 
    4040    1209.2831   -9834.8989   -9700.0016   -1630.4875    13175.126     8.553268 
    4050    1238.6899   -9838.5322   -9700.3545   -70.334636     13166.63    8.5645958 
    4060     1207.139   -9835.3849   -9700.7268    3529.0383    13158.315    8.5730037 
    4070    1177.3815   -9832.4198   -9701.0811    6244.3446    13151.374    8.5776785 
    4080    1214.8324   -9836.9455   -9701.4292    6228.2531    13146.715    8.5782134 
    4090    1218.1137   -9837.7111   -9701.8287    6618.2465    13144.398    8.5773455 
    4100    1198.9765   -9836.0128   -9702.2652    5998.2209    13144.445    8.5769738 
    4110    1238.7031    -9840.933   -9702.7538    3586.9987    13146.562    8.5755037 
    4120    1217.2553   -9839.1022   -9703.3156    4763.8729    13150.073    8.5710277 
    4130    1176.8926   -9835.1881   -9703.9039    5612.6192    13155.237    8.5628279 
    4140    1209.8066   -9839.4337   -9704.4779    3187.2532    13162.263    8.5515018 
    4150    1230.0718   -9842.2982   -9705.0819    675.76013    13170.368    8.5392921 
    4160    1190.1485   -9838.4538    -9705.691   -1053.5352    13178.671    8.5279822 
    4170    1216.5668    -9842.012   -9706.3021   -5357.9247    13186.395    8.5176854 
    4180    1208.1425   -9841.6995   -9706.9294   -7437.4244    13192.179    8.5072124 
    4190    1195.5847    -9840.943   -9707.5737   -5986.2043    13195.318    8.4944026 
    4200    1206.6997   -9842.8437   -9708.2345   -4258.7938    13196.246    8.4797054 
    4210    1137.5355    -9835.717   -9708.8232   -2333.9178    13195.643     8.465683 
    4220    1139.1202   -9836.3505   -9709.2799   -3259.1546    13194.109    8.4536585 
    4230    1205.5191   -9844.1358   -9709.6584   -4595.8991    13191.409    8.4436365 
    4240    1183.8044   -9842.0878   -9710.0326    -2526.062    13187.201    8.4345392 
    4250    1168.5937   -9840.7196   -9710.3612   -771.31755     13182.14    8.4227881 
    4260    1234.8283   -9848.4168   -9710.6699   -2491.4745    13176.732    8.4070833 
    4270    1223.3815   -9847.4978   -9711.0278   -2493.1362    13170.553    8.3908414 
    4280    1160.5013   -9840.8721   -9711.4164    731.93859    13163.667    8.3769105 
    4290    1131.5464   -9837.9313   -9711.7056    3363.3987      13157.1    8.3659518 
    4300    1198.2186   -9845.5561    -9711.893    3825.7794     13151.75    8.3580441 
    4310    1226.4112   -9848.8683   -9712.0603    5421.3859     13147.89    8.3541307 
    4320    1202.0437   -9846.3585   -9712.2688    7571.6985    13146.055    8.3534055 
    4330    1200.0264   -9846.3803   -9712.5155    8374.2151    13146.926    8.3548098 
    4340    1182.7178   -9844.7048   -9712.7708    8153.9373    13150.775    8.3598259 
    4350    1198.8727   -9846.7554   -9713.0194    5523.0674    13157.431    8.3699282 
    4360    1232.1754   -9850.7436   -9713.2926    3443.4382    13166.033    8.3849255 
    4370    1179.7028   -9845.2044   -9713.6068    2496.1604    13175.852    8.4033601 
    4380    1165.4683   -9843.9044   -9713.8946   -938.35526    13186.424    8.4222353 
    4390    1175.9473   -9845.2636   -9714.0849   -5207.5452    13196.545    8.4396663 
    4400    1157.5406   -9843.3053   -9714.1799   -6861.6264     13204.78    8.4550085 
    4410    1166.0864   -9844.2594   -9714.1807   -6889.8273    13210.493    8.4672554 
    4420    1167.3777   -9844.3016   -9714.0789    -6384.619    13213.655    8.4747231 
    4430    1178.3667   -9845.3543   -9713.9057   -6677.6566    13214.419    8.4751674 
    4440    1182.9473   -9845.6531   -9713.6936   -6630.7828    13212.759    8.4676792 
    4450    1154.5988   -9842.2305   -9713.4333   -7102.2257    13208.706    8.4513258 
    4460    1186.8286   -9845.5221   -9713.1296    -9168.323    13202.079    8.4236367 
    4470    1217.9902   -9848.7057   -9712.8371   -8755.1854    13192.271    8.3848602 
    4480    1174.9675   -9843.6397   -9712.5703   -3117.7697    13179.578    8.3379333 
    4490     1187.236   -9844.7025   -9712.2645    1917.9974    13165.877     8.285886 
    4500    1204.8998   -9846.2988   -9711.8904    4937.2126    13152.958      8.23321 
    4510    1173.9078   -9842.4108   -9711.4596    8621.7293    13142.003     8.184862 
    4520    1178.6726   -9842.4453   -9710.9626    11178.391    13134.249    8.1440369 
    4530    1187.3326    -9842.868   -9710.4193    12389.351    13130.552    8.1119689 
    4540    1195.6144     -9843.26   -9709.8874    12039.777    13131.294    8.0887175 
    4550    1212.6546   -9844.6471   -9709.3737    10259.941    13136.299    8.0759513 
    4560    1215.2773   -9844.4652   -9708.8992    8204.3792    13144.925    8.0767673 
    4570    1221.2754    -9844.692   -9708.4568    4000.7061    13156.329    8.0915533 
    4580    1214.2451   -9843.4524   -9708.0016   -189.34688    13169.036    8.1158679 
    4590    1179.9501   -9839.1477   -9707.5225   -2622.5099    13181.581    8.1439781 
    4600    1193.5946   -9840.1698   -9707.0226   -6020.1266    13192.982    8.1714521 
    4610    1173.6663      -9837.4   -9706.4758    -7633.053    13202.153    8.1961555 
    4620    1200.7144    -9839.863   -9705.9215   -9113.3166     13208.44    8.2171705 
    4630    1204.4271   -9839.7176    -9705.362   -8463.6932    13211.433    8.2338237 
    4640     1163.417   -9834.6075   -9704.8266    -6714.848    13211.348    8.2449437 
    4650    1204.0434   -9838.5803   -9704.2675   -7104.9704    13208.745    8.2491442 
    4660    1243.7969   -9842.4532   -9703.7057   -6705.8931    13203.625    8.2474727 
    4670    1200.5768   -9837.1252    -9703.199   -2748.8159    13196.263    8.2432665 
    4680    1228.4889   -9839.7704   -9702.7306    926.71961    13187.982    8.2390081 
    4690    1197.8035   -9835.8802   -9702.2634    5041.3054    13180.184    8.2361271 
    4700    1170.7895   -9832.3902   -9701.7869    7483.2983    13174.256    8.2353408 
    4710    1246.1064   -9840.2856   -9701.2805    6926.0326    13171.005    8.2372593 
    4720    1249.3471   -9840.1881   -9700.8215     6504.676    13170.306    8.2422153 
    4730    1219.8712   -9836.5507   -9700.4722    6705.6031    13172.017    8.2497253 
    4740    1245.3001   -9839.1373   -9700.2222    5494.5773    13176.074    8.2601583 
    4750    1195.6228   -9833.4121   -9700.0385    5360.5885     13182.13    8.2729154 
    4760    1215.4013   -9835.4727   -9699.8929    1694.8292    13189.924    8.2842303 
    4770    1253.1127   -9839.5537   -9699.7671    -2382.138    13198.224    8.2902564 
    4780    1221.5316   -9835.9895   -9699.7258   -2472.5382    13205.708    8.2871026 
    4790    1251.9661   -9839.4441   -9699.7854   -4047.6468    13212.138    8.2722484 
    4800     1255.161   -9839.9716   -9699.9565    -5810.349    13217.032    8.2492843 
    4810     1194.095   -9833.4003   -9700.1972   -6304.0297    13219.823    8.2234445 
    4820    1228.0254   -9837.4661    -9700.478   -8807.6045    13220.219    8.1957538 
    4830    1227.4756   -9837.7489   -9700.8221   -10190.933    13217.444    8.1649225 
    4840    1223.2377   -9837.7082   -9701.2542   -7767.3816    13211.127    8.1293054 
    4850    1231.7867   -9839.1612   -9701.7535   -4589.0022    13202.078    8.0896254 
    4860    1219.2201   -9838.3103   -9702.3044   -2550.9425    13191.429    8.0476379 
    4870    1242.0735   -9841.4747   -9702.9195   -1373.0665    13179.939    8.0057755 
    4880    1225.8906   -9840.3662   -9703.6162    1687.7766    13168.145    7.9673855 
    4890    1190.3472   -9837.0954   -9704.3104    4655.5577    13157.093    7.9349982 
    4900    1252.2227   -9844.7364   -9705.0491    5111.9457    13147.741    7.9101043 
    4910    1228.7438   -9842.9316   -9705.8634    7283.3205    13140.397    7.8943123 
    4920     1208.806   -9841.5457   -9706.7016    9591.5697    13135.776    7.8857496 
    4930    1245.5777   -9846.5395   -9707.5934    8791.7888    13134.543    7.8806359 
    4940    1188.1876   -9841.0632   -9708.5191    9013.0382    13136.542    7.8775879 
    4950    1177.2264   -9840.6862   -9709.3648    6055.5558    13141.663    7.8759652 
    4960    1231.9296   -9847.5993   -9710.1757    1040.9729    13148.859    7.8749111 
    4970    1172.0175   -9841.6731   -9710.9328    208.50459    13156.521    7.8743676 
    4980      1176.04   -9842.7874   -9711.5983   -548.29714    13164.191    7.8750011 
    4990    1241.8046   -9850.7541   -9712.2289   -3840.3601    13171.519    7.8783272 
    5000    1224.4219   -9849.4924   -9712.9063   -5522.7674    13177.455    7.8844196 
Loop time of 2568.79 on 16 procs for 3000 steps with 864 atoms

Performance: 0.101 ns/day, 237.851 hours/ns, 1.168 timesteps/s
96.4% CPU use with 16 MPI tasks x 1 OpenMP threads

MPI task timing breakdown:
Section |  min time  |  avg time  |  max time  |%varavg| %total
---------------------------------------------------------------
Pair    | 1288.3     | 2085.6     | 2525.4     | 829.2 | 81.19
Bond    | 0.00022578 | 0.00058483 | 0.0012178  |   0.0 |  0.00
Neigh   | 0.038294   | 0.059229   | 0.074462   |   5.3 |  0.00
Comm    | 41.901     | 466.06     | 1218.5     |1670.2 | 18.14
Output  | 0.1725     | 0.17626    | 0.23167    |   3.4 |  0.01
Modify  | 1.2129     | 16.848     | 61.784     | 632.2 |  0.66
Other   |            | 0.0134     |            |       |  0.00

Nlocal:        54.0000 ave          65 max          36 min
Histogram: 1 1 2 0 3 1 0 0 5 3
Nghost:        645.062 ave         760 max         531 min
Histogram: 8 0 0 0 0 0 0 0 0 8
Neighs:         0.00000 ave           0 max           0 min
Histogram: 16 0 0 0 0 0 0 0 0 0
FullNghs:      3445.62 ave        4477 max        2143 min
Histogram: 2 2 0 3 1 0 0 0 6 2

Total # of neighbors = 55130
Ave neighs/atom = 63.807870
Ave special neighs/atom = 0.0000000
Neighbor list builds = 300
Dangerous builds = 300
Setting up Verlet run ...
  Unit style    : metal
  Current step  : 5000
  Time step     : 0.001
Per MPI rank memory allocation (min/avg/max) = 8.899 | 8.906 | 8.912 Mbytes
Step Temp PotEng TotEng Press Volume c_msd[4] 
    5000    1224.4219   -9849.4924   -9712.9063   -5522.7674    13177.455    7.8844196 
    5010    1186.9104   -9845.3165   -9712.9148   -3407.8882    13176.579    7.8797122 
    5020     1181.762   -9844.7369   -9712.9095   -2852.9413    13174.405    7.8746281 
    5030    1185.0778   -9845.0653   -9712.8681   -3260.1468    13171.154    7.8689662 
    5040    1191.9406   -9845.7502   -9712.7874   -3598.9233    13166.719    7.8618866 
    5050     1211.955   -9847.8978   -9712.7025   -3396.2937    13160.987    7.8513659 
    5060    1202.5185    -9846.763   -9712.6202   -1048.9714    13154.112      7.83781 
    5070     1207.783   -9847.2768   -9712.5468    891.29625    13146.823    7.8246298 
    5080    1206.0239   -9846.9895   -9712.4557    4336.9202    13139.915    7.8145981 
    5090    1220.6965   -9848.5446   -9712.3741    6995.8502    13134.527    7.8085029 
    5100    1196.5914    -9845.793   -9712.3115    8815.3563    13131.631    7.8058205 
    5110    1182.9169   -9844.2096   -9712.2534    8893.4207    13131.864    7.8058699 
    5120    1206.1147   -9846.7175   -9712.1736    5997.4728    13135.191    7.8084411 
    5130    1205.5652   -9846.5642   -9712.0815    3928.1281     13140.74    7.8132658 
    5140    1202.2441   -9846.0968   -9711.9847    1073.7314    13147.687    7.8208692 
    5150    1227.9344   -9848.8614   -9711.8835   -1835.6912    13155.043    7.8322771 
    5160    1235.7129   -9849.6598   -9711.8142   -3611.5082     13161.79    7.8469608 
    5170    1213.3094    -9847.148   -9711.8015   -4805.8615    13167.274    7.8613079 
    5180    1180.2898   -9843.4787   -9711.8156    -5614.123    13171.057    7.8719724 
    5190    1167.4057   -9842.0297   -9711.8038   -4999.0101    13172.864    7.8783447 
    5200    1177.5983   -9843.0952   -9711.7323   -2598.7008     13172.92    7.8825637 
    5210    1193.5379    -9844.723   -9711.5821   -1078.2316    13172.008    7.8866994 
    5220    1240.4893    -9849.799   -9711.4205   -1831.8112    13170.612    7.8902568 
    5230    1170.4287   -9841.8208   -9711.2578   -405.93172    13168.642    7.8915548 
    5240    1152.2988   -9839.5827   -9711.0421   -422.20948    13166.452    7.8886291 
    5250    1189.8494   -9843.4447   -9710.7152   -1694.8556    13164.047    7.8830399 
    5260    1163.9227   -9840.1341   -9710.2968   -1068.7762    13161.103    7.8776907 
    5270    1206.0519   -9844.3469     -9709.81   -1543.5249    13157.713    7.8712521 
    5280    1223.3852   -9845.7441   -9709.2736   -958.49641    13153.782    7.8622978 
    5290    1196.6516   -9842.2364   -9708.7481   -626.70684    13149.453    7.8514824 
    5300    1217.4823   -9844.0409   -9708.2289   -1171.2451     13144.83    7.8416006 
    5310    1211.2232   -9842.8152   -9707.7015    766.81902    13139.861    7.8365463 
    5320     1195.817   -9840.5765   -9707.1813      3174.07    13135.132    7.8368794 
    5330    1180.9337   -9838.3485   -9706.6135    4191.1795    13131.472    7.8401306 
    5340    1244.2289   -9844.7987   -9706.0031    2677.6849    13129.226    7.8426602 
    5350    1266.8303   -9846.7349   -9705.4181    1832.3685    13127.966    7.8429036 
    5360    1247.6645   -9844.1442   -9704.9653     1611.692    13127.366    7.8426236 
    5370    1241.5075    -9843.123    -9704.631    2816.7123    13127.403    7.8459316 
    5380    1240.8415   -9842.8015   -9704.3838    4783.8661    13128.499    7.8563479 
    5390    1249.2329   -9843.6033   -9704.2495    6374.1145    13131.324    7.8739777 
    5400    1182.2511   -9836.0976   -9704.2157    9192.0631    13136.553    7.8975806 
    5410    1171.4686   -9834.8706   -9704.1915    6758.4093    13144.979    7.9244075 
    5420    1269.4631   -9845.7455    -9704.135   -759.07968     13155.77    7.9513457 
    5430    1273.8422   -9846.2731   -9704.1741   -5408.1861    13166.507    7.9759481 
    5440    1228.1108   -9841.3938   -9704.3962   -7707.6661    13175.451    7.9949004 
    5450    1225.9368   -9841.4864   -9704.7313    -9359.327    13181.685    8.0056044 
    5460    1223.0746   -9841.5855   -9705.1497     -8826.03    13184.636    8.0079652 
    5470    1215.5788   -9841.2394   -9705.6397   -8021.4753    13184.401    8.0038612 
    5480    1221.1874    -9842.398   -9706.1727   -8908.5298     13181.19    7.9967164 
    5490    1261.0403   -9847.5179   -9706.8469   -9133.4726    13174.734    7.9899034 
    5500    1213.1446   -9842.9711    -9707.643   -4843.7952    13165.079     7.984296 
    5510    1201.5746   -9842.5181   -9708.4806   -1206.8356    13153.558      7.97849 
    5520    1197.2595   -9842.9073   -9709.3512    1403.4839    13141.497     7.971583 
    5530     1189.205   -9842.8529   -9710.1953    4748.5012    13129.915    7.9617375 
    5540    1241.5831   -9849.5676   -9711.0672    4825.4257    13119.863    7.9488558 
    5550    1250.5593   -9851.5781   -9712.0763     5482.441    13111.514    7.9366225 
    5560    1181.3035   -9844.8746   -9713.0984    9118.6134      13105.2    7.9297566 
    5570    1183.0011   -9845.9974   -9714.0318    9997.3362    13102.025     7.930228 
    5580    1195.3553   -9848.2085   -9714.8648    9307.2906     13102.41    7.9380817 
    5590     1216.391   -9851.3201   -9715.6298    6247.8031    13106.084    7.9516663 
    5600    1227.5225   -9853.2955   -9716.3635    1744.6861        13112    7.9667208 
    5610    1167.5139    -9847.248     -9717.01    11.768596    13118.693    7.9788367 
    5620    1136.3978     -9844.23   -9717.4631   -55.438069    13125.509    7.9863132 
    5630    1176.7767   -9849.0125   -9717.7413   -1531.0728    13132.303     7.990499 
    5640    1182.7676   -9849.8167   -9717.8772   -3381.3504    13138.593    7.9938422 
    5650    1196.7063   -9851.4497   -9717.9553   -4647.1412    13143.722    7.9973986 
    5660    1151.2362   -9846.4085   -9717.9864   -3666.7594     13147.29    8.0013488 
    5670    1152.4736   -9846.5051   -9717.9449   -4629.2582    13149.481    8.0053928 
    5680    1196.0839   -9851.2652   -9717.8402   -5681.3118    13150.001    8.0105959 
    5690    1151.0742   -9846.1013   -9717.6972   -2651.3829    13148.624    8.0182197 
    5700     1176.898   -9848.8017    -9717.517   -1747.1955    13146.202    8.0274691 
    5710    1197.3155   -9850.8628   -9717.3005   -1408.4807    13143.124    8.0375684 
    5720    1171.0662   -9847.7074   -9717.0732    551.98316    13139.597    8.0478712 
    5730    1218.7106   -9852.7788   -9716.8298   -1104.7591    13136.093    8.0564818 
    5740    1200.2376   -9850.4728   -9716.5845   -1337.3534    13132.206    8.0618473 
    5750     1190.491   -9849.1755   -9716.3744   -860.18628    13127.804    8.0632382 
    5760    1167.0993     -9846.31   -9716.1183    1663.2535    13123.129    8.0607416 
    5770    1147.6766   -9843.7903   -9715.7653    4952.0429    13119.042    8.0550723 
    5780    1186.4081   -9847.6594   -9715.3138    5703.3809    13116.636    8.0486605 
    5790    1224.8192   -9851.4565   -9714.8261    5701.7612    13116.246    8.0434851 
    5800    1230.3243   -9851.6465    -9714.402     5970.903    13117.938    8.0380819 
    5810    1221.8625   -9850.3871   -9714.0865    4920.9778    13121.747    8.0297111 
    5820    1167.8292   -9844.0773   -9713.8042    5138.5163    13127.426    8.0188748 
    5830    1137.5104    -9840.334    -9713.443     3274.443    13134.977    8.0081179 
    5840     1222.222   -9849.3069   -9712.9662   -2103.2624    13143.686    7.9979581 
    5850    1214.7454   -9847.9486   -9712.4419   -5429.5215    13151.773    7.9870849 
    5860    1194.8674   -9845.2514   -9711.9621   -7333.2754    13157.989    7.9725034 
    5870    1222.9998    -9847.904   -9711.4765   -9151.4589    13161.594    7.9536959 
    5880    1213.5985   -9846.3695   -9710.9908   -8030.9189    13162.011    7.9340561 
    5890    1218.8637   -9846.4922   -9710.5262   -5893.9444    13159.527    7.9174159 
    5900    1195.7194   -9843.4399   -9710.0556   -3010.6514    13154.885    7.9058809 
    5910    1206.5972   -9844.1536   -9709.5558   -1515.3726    13149.044    7.8979321 
    5920    1281.8907   -9852.0374   -9709.0405   -2316.6788    13142.518    7.8902393 
    5930    1269.2152   -9850.1861   -9708.6033   -943.32878    13135.158    7.8823273 
    5940    1223.4956   -9844.7557   -9708.2729     2641.776    13127.456    7.8753326 
    5950    1198.3466    -9841.634   -9707.9566    5508.0014    13120.594    7.8693554 
    5960    1187.2648   -9840.0306   -9707.5894    8073.7359    13115.643    7.8634225 
    5970    1218.5291   -9843.0728    -9707.144    7998.8783    13113.459    7.8569382 
    5980    1241.1027   -9845.0688   -9706.6219    5890.6931    13114.085    7.8516495 
    5990    1255.6864   -9846.1352   -9706.0615    2991.3879    13116.836    7.8507268 
    6000    1253.5189   -9845.3312   -9705.4993    1202.6722    13120.737    7.8568962 
    6010    1224.0037   -9841.4618   -9704.9224    1668.7565     13125.21    7.8691233 
    6020    1255.4154    -9844.354   -9704.3106    1144.2376    13130.299     7.883577 
    6030    1265.0579   -9844.7969   -9703.6778    656.92798    13135.866    7.8992571 
    6040    1233.0986   -9840.6158   -9703.0618   -252.24382    13141.734    7.9178183 
    6050     1243.944   -9841.2001   -9702.4363   -2697.7307    13147.537     7.938313 
    6060    1263.5377    -9842.777   -9701.8274   -4347.8878    13152.458    7.9567602 
    6070    1269.4788   -9842.9159   -9701.3036   -4599.5527    13155.903    7.9694089 
    6080    1263.4312   -9841.8512   -9700.9136   -3433.2567    13157.759    7.9746406 
    6090    1222.4498   -9837.0045   -9700.6384   -1320.8433    13158.431    7.9733854 
    6100    1246.6509   -9839.5407   -9700.4749   -1516.8614    13158.565    7.9683649 
    6110    1248.0505   -9839.6544   -9700.4325   -3375.6195    13158.104    7.9611808 
    6120    1290.9164   -9844.5947   -9700.5911    -6381.893    13156.366    7.9493262 
    6130    1291.4652   -9845.0974   -9701.0325   -6377.3863    13152.378    7.9299443 
    6140    1209.1885   -9836.5461   -9701.6593    -2516.982    13146.162    7.9017507 
    6150    1225.2609   -9839.0209   -9702.3412   -506.51167      13138.9    7.8656062 
    6160    1271.7813   -9844.9849   -9703.1157    141.06088    13131.333    7.8268113 
    6170    1245.5063   -9842.9502   -9704.0121    1668.9591    13123.773    7.7916682 
    6180    1239.8716   -9843.2707   -9704.9612    3338.1521    13116.745    7.7624751 
    6190    1252.8603   -9845.7405    -9705.982    3847.6631    13110.816    7.7381127 
    6200    1225.9915   -9843.7606   -9706.9994    4348.8927    13106.241    7.7166354 
    6210    1259.7141   -9848.5608   -9708.0378    3441.7121    13103.147    7.6968449 
    6220    1242.1625   -9847.7025   -9709.1374    3640.5343    13101.317    7.6793632 
    6230    1207.0877   -9844.8434    -9710.191    3318.9335    13100.742     7.665385 
    6240    1224.9632   -9847.8219   -9711.1754    2964.2578    13101.356    7.6571016 
    6250    1213.6687   -9847.4938   -9712.1072    3993.3694    13103.104    7.6560957 
    6260    1194.2121   -9846.1778   -9712.9617    4752.6037    13106.314    7.6615522 
    6270     1186.647   -9846.0787   -9713.7065    3530.0659    13111.215     7.671604 
    6280    1188.3527   -9846.8753   -9714.3128    3063.0792    13117.478    7.6852716 
    6290    1201.2757   -9848.8209   -9714.8168    2878.6906     13124.93    7.7029308 
    6300      1204.97   -9849.6494   -9715.2332    391.54781    13133.434    7.7248297 
    6310    1221.1469   -9851.8137    -9715.593   -2922.4593    13142.153    7.7495535 
    6320     1176.606   -9847.1637   -9715.9115   -4381.4277    13149.988    7.7748218 
    6330    1149.7067   -9844.4017   -9716.1502    -6155.944    13156.292    7.7977782 
    6340    1172.6071   -9847.0949   -9716.2888   -9212.9012    13160.365    7.8158184 
    6350    1167.1043   -9846.5383   -9716.3461   -10847.248    13161.181    7.8284663 
    6360    1196.9735   -9849.8926   -9716.3684   -10510.077    13158.137    7.8362582 
    6370    1204.7892    -9850.805   -9716.4089   -7097.6293    13151.349    7.8397065 
    6380    1182.3984   -9848.3756   -9716.4773   -2477.2827    13141.964    7.8389954 
    6390    1190.7549    -9849.381   -9716.5505    728.38141    13131.539    7.8356845 
    6400    1160.1657   -9846.0046   -9716.5863       4816.2    13121.336    7.8319507 
    6410    1177.9127   -9847.9651   -9716.5671    6320.0175    13112.707    7.8287332 
    6420    1235.3995   -9854.3429   -9716.5323    5984.8008    13106.239    7.8280916 
    6430    1190.8761   -9849.3578   -9716.5137     6540.468    13101.918    7.8314666 
    6440    1175.5896   -9847.5886   -9716.4499    6810.2878    13099.927    7.8371821 
    6450     1216.686    -9852.049   -9716.3259      5392.56    13100.305    7.8453194 
    6460    1177.9464   -9847.5701   -9716.1685     6996.458    13102.765    7.8581981 
    6470    1199.1119   -9849.7341   -9715.9713    5892.7213    13107.657    7.8759394 
    6480    1211.8919   -9850.9106   -9715.7223    3344.6189    13114.678    7.8980161 
    6490     1148.183   -9843.5196    -9715.438    2054.8769    13123.023    7.9232438 
    6500    1173.7927   -9845.9952   -9715.0569   -1360.5505     13132.09    7.9491821 
    6510    1226.5024   -9851.3726   -9714.5544   -4780.4226    13140.727    7.9750312 
    6520    1233.5067   -9851.6529   -9714.0534   -6437.2762    13147.748    7.9998616 
    6530     1217.959    -9849.501   -9713.6358   -7345.6095    13152.507     8.021417 
    6540    1173.7479   -9844.2014    -9713.268   -7565.7043    13154.663    8.0378634 
    6550    1189.8585   -9845.6124   -9712.8819   -8840.1178    13154.023    8.0483958 
    6560    1220.9069   -9848.6406   -9712.4466   -8000.6918    13150.247    8.0541914 
    6570    1186.9564    -9844.369   -9711.9622   -4142.9442    13143.644     8.056923 
    6580    1194.2275   -9844.5997   -9711.3818   -491.30446    13135.484    8.0570548 
    6590    1236.3641   -9848.5629   -9710.6446    1385.9604    13127.054    8.0549353 
    6600    1245.7983   -9848.8178   -9709.8471    2856.8752     13119.07    8.0507742 
    6610    1191.3549   -9841.9227   -9709.0253    4872.1183    13112.128    8.0437663 
    6620    1243.1028     -9846.83     -9708.16    5167.3701    13106.868    8.0324238 
    6630    1204.7965   -9841.6573   -9707.2605    8185.0816    13103.572    8.0183958 
    6640    1216.4486   -9842.1309   -9706.4342    9761.5969    13103.152    8.0026261 
    6650    1314.7764   -9852.3623    -9705.697    8700.5607    13106.133    7.9856526 
    6660    1245.3986   -9844.0954   -9705.1693    11729.555    13112.415    7.9708268 
    6670     1210.656   -9839.8956   -9704.8451    12413.666    13122.856    7.9627105 
    6680    1242.6338   -9843.1916   -9704.5739    7634.6014    13137.607    7.9652155 
    6690    1217.2477    -9840.121   -9704.3352    3422.7415    13155.192    7.9779772 
    6700    1209.7973   -9839.0527   -9704.0979   -1360.0291    13174.052    7.9978523 
    6710    1248.1568   -9843.0683   -9703.8345   -7338.8402    13192.422     8.020752 
    6720    1245.8528   -9842.5778    -9703.601   -12913.208    13208.162    8.0426076 
    6730    1267.1276   -9844.8466   -9703.4966   -17051.538    13219.252    8.0624337 
    6740    1244.4216   -9842.4175   -9703.6004   -18026.094     13224.22    8.0839142 
    6750    1205.4436   -9838.3774   -9703.9083   -16492.158     13222.68     8.109136 
    6760    1214.6106   -9839.7977   -9704.3061   -14870.303    13215.111    8.1359867 
    6770    1249.5333   -9844.1955   -9704.8082   -11847.423    13202.184    8.1617071 
    6780    1204.6256   -9839.7593   -9705.3815   -6715.5972    13185.076    8.1832901 
    6790    1220.9649    -9842.215   -9706.0145     -2348.48    13165.598    8.1978042 
    6800    1198.9075   -9840.4601   -9706.7202    3509.6637    13145.474    8.2062894 
    6810    1184.7646   -9839.5984   -9707.4362     9411.392    13126.799    8.2119208 
    6820     1292.708   -9852.5465    -9708.343    12170.871    13111.557    8.2191647 
    6830    1265.7161   -9850.7992   -9709.6066    16577.126    13100.904    8.2332387 
    6840    1205.7899   -9845.5877     -9711.08    17680.264     13096.17     8.254683 
    6850       1196.2   -9846.0072   -9712.5693     14544.77    13097.666    8.2807943 
    6860    1211.6588   -9849.1348   -9713.9724    10328.235    13104.346    8.3102238 
    6870    1225.8737   -9852.0097   -9715.2616    6959.3372    13114.704    8.3428922 
    6880    1172.9356   -9847.2052   -9716.3625    5761.2548    13127.551    8.3787292 
    6890     1150.893   -9845.5942   -9717.2103    3051.0288    13142.321    8.4166014 
    6900     1182.611   -9849.7502   -9717.8282    -2138.302    13157.956    8.4528054 
    6910    1167.3069   -9848.4803   -9718.2654   -6145.8966    13172.712    8.4803298 
    6920    1162.0902   -9848.1713   -9718.5384   -7827.2092    13185.186    8.4935099 
    6930    1192.0569   -9851.6744   -9718.6986   -8365.7799    13194.714    8.4936653 
    6940    1170.0079   -9849.2937   -9718.7776   -7673.8951    13201.147    8.4882333 
    6950    1166.9474   -9848.9613   -9718.7866    -7840.629    13204.671    8.4833015 
    6960    1179.6724   -9850.3345   -9718.7402   -8405.5557    13205.309    8.4791237 
    6970    1171.6028   -9849.3713   -9718.6772    -9422.838    13202.877     8.470993 
    6980    1140.9722    -9845.851   -9718.5738   -8029.1055    13197.152    8.4540935 
    6990    1153.5888   -9847.0805   -9718.3959   -4980.8547    13188.655    8.4300042 
    7000    1174.2874   -9849.1044   -9718.1109   -2216.1991    13178.472    8.4055959 
    7010    1229.7416   -9854.9561   -9717.7766   -1030.7202    13167.577    8.3864177 
    7020    1220.6879   -9853.6211   -9717.4516    2509.1127     13156.57    8.3739892 
    7030    1167.7983   -9847.3676    -9717.098    7958.8032     13146.73    8.3667143 
    7040    1194.9606   -9850.0081   -9716.7084    9272.7006    13139.769    8.3634216 
    7050    1181.6608   -9848.1118   -9716.2957    8321.8466    13136.197     8.365921 
    7060    1179.8421   -9847.4744   -9715.8612    6213.5248    13135.627    8.3763157 
    7070    1205.2561   -9849.8178   -9715.3697     4919.531    13137.306     8.393776 
    7080     1232.577   -9852.3573   -9714.8615    5326.0591    13140.776    8.4145414 
    7090    1237.3898   -9852.4463   -9714.4136    5775.1082    13146.084    8.4368481 
    7100    1189.3832   -9846.7184   -9714.0409    6613.1664    13153.387    8.4627052 
    7110    1160.0206   -9843.0779   -9713.6759    6302.3286    13162.913    8.4957177 
    7120    1195.9478   -9846.6425   -9713.2327    2393.0937    13174.395    8.5392797 
    7130    1192.9885   -9845.7907    -9712.711   -946.83615     13186.56    8.5921236 
    7140    1197.5148   -9845.7452   -9712.1606   -3352.9611    13198.208     8.648222 
    7150    1238.0543   -9849.6986   -9711.5918   -6914.0944    13208.393    8.7028399 
    7160    1212.0597   -9846.2489   -9711.0418   -8804.3583    13215.954    8.7544262 
    7170    1185.4345   -9842.7527   -9710.5157   -8580.8755    13220.269    8.8015368 
    7180    1208.1733   -9844.7306   -9709.9571    -8840.682     13221.37    8.8426667 
    7190    1237.5585   -9847.4373   -9709.3858   -9165.2202    13219.241    8.8759933 
    7200    1230.1952   -9846.0831    -9708.853   -7140.6152    13213.938    8.8998686 
    7210    1223.7618   -9844.8692   -9708.3568   -4442.6839    13206.195    8.9149191 
    7220    1237.3523   -9845.9145    -9707.886   -2626.6348    13196.993     8.924382 
    7230     1226.046   -9844.2162   -9707.4489    288.42176    13187.103    8.9313849 
    7240    1212.4542   -9842.2955   -9707.0444     4616.291    13177.608     8.935805 
    7250    1229.5964   -9843.8211   -9706.6578    7158.1885     13169.95    8.9370575 
    7260    1245.3639    -9845.261   -9706.3388    7263.1839    13164.973    8.9356362 
    7270    1220.8143   -9842.2958   -9706.1121    7249.2764    13162.726    8.9309747 
    7280    1244.0218   -9844.7386    -9705.966    6343.1524    13163.103    8.9224565 
    7290    1243.8081    -9844.627   -9705.8783    6103.3098    13165.776    8.9109431 
    7300    1241.9449   -9844.3997   -9705.8589    5198.3371    13170.557    8.8967856 
    7310    1245.4023   -9844.8442   -9705.9177    3320.9746    13177.071    8.8805696 
    7320    1222.6233   -9842.4393   -9706.0538    1594.5081    13184.626     8.863797 
    7330    1244.4502   -9845.0951   -9706.2748   -1161.5256     13192.53    8.8480357 
    7340    1282.6765   -9849.7623   -9706.6778   -3428.7131    13199.829    8.8336835 
    7350    1221.9339   -9843.6543   -9707.3457    -2442.747    13205.825    8.8191489 
    7360    1199.2856     -9841.99   -9708.2078   -3310.5766    13210.724    8.8019559 
    7370    1219.9676   -9845.3176   -9709.2284   -5479.4577     13214.26    8.7822393 
    7380    1180.7041    -9842.071   -9710.3617   -4339.5594    13215.869    8.7638238 
    7390    1192.7508   -9844.5808   -9711.5276   -3525.4769    13215.858    8.7510703 
    7400    1218.4146   -9848.6527   -9712.7367   -3941.0233     13214.51    8.7452142 
    7410     1166.364   -9844.0107   -9713.9011   -2994.3356    13211.829    8.7438414 
    7420    1123.2565   -9840.1827   -9714.8817   -1531.1198    13208.153    8.7444208 
    7430     1160.443   -9845.0923   -9715.6431   -1059.5652    13203.984    8.7471408 
    7440    1240.0372   -9854.6581   -9716.3301   -1553.3453    13199.521    8.7531434 
    7450    1224.7296   -9853.6621   -9717.0417    253.88233    13194.692    8.7634496 
    7460    1141.0299   -9844.9764   -9717.6928    3922.7055    13190.138    8.7778888 
    7470    1166.8039   -9848.3544   -9718.1957    3868.8346    13186.994    8.7947378 
    7480    1230.5885   -9855.9035   -9718.6295    2195.5797     13185.27    8.8138506 
    7490     1172.158   -9849.7817   -9719.0258    3959.6804    13184.501    8.8364752 
    7500    1165.4783   -9849.3558   -9719.3449    4098.4934    13185.121    8.8619903 
    7510    1208.5484   -9854.4066   -9719.5912    2245.2452    13187.144    8.8879156 
    7520    1192.0018   -9852.7899   -9719.8203    2378.6145    13190.006     8.911399 
    7530    1187.4006   -9852.4904    -9720.034    2162.3599     13193.63    8.9315553 
    7540    1184.6255   -9852.3723   -9720.2255    1011.7841     13197.93    8.9494014 
    7550    1129.9173   -9846.4051   -9720.3612    899.60013    13202.565    8.9662404 
    7560    1132.1111   -9846.6658    -9720.377   -332.78957    13207.373    8.9826267 
    7570    1176.0839   -9851.4508   -9720.2569   -1397.6424    13211.971    8.9978103 
    7580    1196.5895   -9853.5476   -9720.0663   -1758.9438    13215.985    9.0096148 
    7590    1190.9705   -9852.7173   -9719.8628   -1217.6238    13219.304    9.0171217 
    7600    1155.2514   -9848.4934   -9719.6234    -1167.159    13222.094    9.0213529 
    7610    1142.5875   -9846.7486   -9719.2913   -2421.5527    13224.343    9.0223646 
    7620    1147.4681   -9846.8218     -9718.82   -2838.0775    13225.701    9.0191582 
    7630    1172.1652   -9848.9561   -9718.1993   -3914.4599    13225.987    9.0108755 
    7640    1244.6499   -9856.3223   -9717.4798   -4564.0674    13224.865     8.997789 
    7650     1206.887   -9851.3891   -9716.7591    -1119.656    13222.252     8.981756 
    7660    1166.7895   -9846.2105   -9716.0533    3391.1061    13219.351    8.9634693 
    7670    1227.9786   -9852.2632   -9715.2804    4000.6099    13217.588    8.9448851 
    7680    1215.7997    -9850.115   -9714.4907    5325.8661    13217.335     8.929876 
    7690     1179.865   -9845.3621   -9713.7464    6568.3966    13219.034    8.9210126 
    7700    1185.2127   -9845.2039   -9712.9917    3719.6193    13222.917    8.9201372 
    7710    1157.5535    -9841.321   -9712.1941     2851.624    13228.156    8.9275194 
    7720     1160.842   -9840.8412   -9711.3475    2147.7538    13234.355    8.9402971 
    7730    1221.1957   -9846.6672   -9710.4409   -502.31655    13241.168    8.9530079 
    7740     1218.475   -9845.4933   -9709.5706   -2165.5414    13247.745    8.9610711 
    7750    1247.4135   -9847.9846   -9708.8338   -4143.8558     13253.42    8.9617684 
    7760    1253.3166   -9848.0733   -9708.2639   -4749.6212    13257.537    8.9553471 
    7770    1165.2917   -9837.8449   -9707.8549   -2375.6989    13259.975    8.9434628 
    7780    1174.5688   -9838.5141   -9707.4892   -2788.5001    13261.419    8.9283304 
    7790     1244.309   -9845.9347   -9707.1301   -4113.2598    13261.813    8.9143384 
    7800    1250.2183   -9846.3638   -9706.9001   -2458.3509     13260.81    8.9060782 
    7810    1217.4244   -9842.6087   -9706.8032   -1377.0919    13258.887    8.9067407 
    7820    1239.3059   -9845.0508   -9706.8044   -1700.6602    13256.438    8.9167584 
    7830    1218.6331   -9842.8261   -9706.8857   -529.11812     13253.46    8.9351558 
    7840    1174.8352   -9838.0418   -9706.9872    1494.9841    13250.365    8.9606569 
    7850    1208.7307   -9841.8902   -9707.0545    1720.7599    13247.797    8.9925122 
    7860    1260.6648   -9847.7573   -9707.1282    1477.7013    13245.883    9.0300542 
    7870    1248.3832   -9846.5333   -9707.2743    2643.2403    13244.585    9.0713278 
    7880    1201.4323   -9841.4867   -9707.4652    3785.4643    13244.284    9.1136987 
    7890    1216.6756   -9843.3847   -9707.6627    2239.8863    13245.293    9.1551486 
    7900    1240.4139   -9846.2623   -9707.8923   -1071.7389    13247.049    9.1948957 
    7910    1206.2773    -9842.724    -9708.162   -1580.8311    13248.514    9.2309311 
    7920    1223.1859   -9844.9067   -9708.4584   -2263.3422    13249.382    9.2614215 
    7930    1232.8629   -9846.3248   -9708.7971    -870.8294    13249.494    9.2876836 
    7940    1194.8318   -9842.4489   -9709.1636    2131.2884    13249.355    9.3114262 
    7950    1231.6566   -9846.9309   -9709.5378    1296.4268    13249.871    9.3324982 
    7960    1252.9848   -9849.7532   -9709.9809   -234.11771    13250.818    9.3517558 
    7970    1157.8692   -9839.6152   -9710.4531    2851.8471    13251.844    9.3701427 
    7980    1153.5909   -9839.5187   -9710.8339    4245.7428    13253.864    9.3881838 
    7990    1235.2119   -9848.9435   -9711.1538    2195.2702    13257.315    9.4083333 
    8000    1229.6016   -9848.6678   -9711.5039    1608.3848    13261.634    9.4328841 
    8010    1195.5225   -9845.2708   -9711.9085    571.19324    13266.505    9.4600713 
    8020     1170.719    -9842.859   -9712.2636    -352.8391    13271.577    9.4847537 
    8030    1245.5203    -9851.551   -9712.6113   -2605.1953     13276.42    9.5036436 
    8040    1224.7707    -9849.641    -9713.016   -2926.5317     13280.34    9.5177374 
    8050    1175.4631    -9844.575   -9713.4503   -3208.2058    13283.153    9.5289549 
    8060    1184.8611   -9846.0245   -9713.8515   -4016.7177    13284.767    9.5374739 
    8070      1195.23   -9847.5426   -9714.2129    -3069.126    13284.955    9.5416516 
    8080    1232.6848   -9852.0964   -9714.5886    -1328.371    13284.046     9.540407 
    8090    1250.1138   -9854.4775   -9715.0254    -1290.521      13282.6    9.5365716 
    8100    1250.6141   -9855.1014   -9715.5936   -886.14957    13280.718    9.5333479 
    8110    1205.4241   -9850.7059    -9716.239    1532.5818    13278.616    9.5322718 
    8120    1205.0526   -9851.3406   -9716.9151    1493.7188        13277    9.5332991 
    8130    1197.3792   -9851.1466   -9717.5771    236.79928     13275.93     9.536673 
    8140    1210.4723   -9853.2872   -9718.2572   -846.93662    13274.958    9.5436988 
    8150      1194.62   -9852.1992   -9718.9375   -177.63841    13273.752     9.555266 
    8160    1190.8098    -9852.432   -9719.5953   -210.00618     13272.45    9.5711587 
    8170    1205.2913   -9854.6658   -9720.2137   -129.18013    13271.094    9.5921086 
    8180    1203.4405   -9855.0662   -9720.8206    1294.8557    13269.752    9.6187844 
    8190    1150.3152   -9849.6789   -9721.3595    3609.9584    13268.921    9.6507677 
    8200    1177.7377   -9853.1616   -9721.7832     3493.546    13269.344    9.6871151 
    8210    1207.2449   -9856.8048   -9722.1348    3361.5376    13271.067    9.7277907 
    8220    1146.2872   -9850.2631    -9722.393    5183.8778     13274.12    9.7723254 
    8230    1188.4037   -9855.0996   -9722.5314    2186.8032    13278.888    9.8167475 
    8240    1193.2795   -9855.7086   -9722.5965    -1030.578    13284.437    9.8569192 
    8250    1120.3801    -9847.578   -9722.5979   -670.72618    13289.742    9.8915301 
    8260    1167.4699   -9852.7615   -9722.5285   -1184.0222    13294.746    9.9226489 
    8270    1147.8511   -9850.4128   -9722.3683    560.38647    13299.404    9.9545701 
    8280    1170.6815   -9852.7501   -9722.1589    630.57462    13304.213    9.9879726 
    8290     1236.797   -9859.9152   -9721.9487   -2348.7546    13309.165    10.021511 
    8300     1157.796   -9850.9292   -9721.7753   -3503.3768    13313.343    10.054135 
    8310    1143.5688   -9849.1538    -9721.587   -6213.9699     13316.15    10.083199 
    8320    1181.9805   -9853.1878   -9721.3361   -9114.0882    13316.639    10.105016 
    8330      1169.53    -9851.545   -9721.0822   -9157.2038    13313.838    10.116115 
    8340    1180.4055   -9852.5113   -9720.8353   -6979.7815    13307.733    10.115006 
    8350    1177.3875   -9851.9145   -9720.5752   -2866.7277    13299.126    10.105733 
    8360    1151.5481   -9848.7047   -9720.2478    478.13895    13289.439    10.093256 
    8370    1233.2325   -9857.4596   -9719.8906    2054.6108    13279.845     10.07967 
    8380    1186.6121   -9851.8923   -9719.5239    8056.1554     13271.18    10.067216 
    8390    1163.4128   -9848.9425   -9719.1621    12801.157    13265.434    10.057405 
    8400    1218.6149   -9854.7227   -9718.7844    14037.524    13264.292    10.053357 
    8410    1171.2646   -9849.0976   -9718.4413    15401.883    13268.337    10.059993 
    8420    1185.9877   -9850.4421   -9718.1434    13908.445    13277.973     10.08079 
    8430    1223.8623   -9854.3564   -9717.8328    8920.8803    13292.664    10.117807 
    8440    1216.7183   -9853.2512   -9717.5245    3559.0616    13310.689    10.168001 
    8450    1211.3262    -9852.344   -9717.2188   -1123.8951    13330.102    10.223601 
    8460    1177.0026   -9848.1806   -9716.8841   -3647.9101    13349.236     10.27731 
    8470    1153.9603   -9845.2052   -9716.4792   -7083.6605    13367.018    10.325047 
    8480    1200.3903   -9849.8596   -9715.9543    -12915.77    13382.093    10.365087 
    8490    1227.2025   -9852.2918   -9715.3956   -16350.742    13392.445    10.395759 
    8500    1177.5733   -9846.2791    -9714.919   -15562.661    13396.829    10.415663 
    8510    1163.9814   -9844.3263   -9714.4824   -13091.341    13395.412    10.425435 
    8520    1165.2577   -9843.9701   -9713.9839   -9436.5814    13389.135    10.428208 
    8530     1202.643   -9847.5561   -9713.3995   -6672.9054    13379.302    10.427191 
    8540    1244.0671   -9851.5393   -9712.7618   -5058.9572    13366.941    10.424012 
    8550    1262.5181   -9853.0254   -9712.1896   -2666.7356     13352.73    10.418164 
    8560    1238.2737   -9849.8645   -9711.7332    1915.6772    13337.632    10.410303 
    8570    1188.5489   -9843.9127   -9711.3282    5686.4322    13323.249    10.403681 
[...]
   22890    1195.7598   -9864.5976   -9731.2088   -8247.8828     15129.61    45.358898 
   22900    1166.0734   -9862.5585   -9732.4812   -8822.7891    15129.801    45.374324 
   22910     1139.593   -9860.7604   -9733.6371     -8632.29    15125.802    45.381841 
   22920    1099.3693    -9857.177   -9734.5407   -5179.8261    15117.866    45.381192 
   22930    1128.6292   -9861.0642   -9735.1639   -2264.3774    15107.499    45.371816 
   22940    1157.4087   -9864.6934   -9735.5827   -1169.4404    15096.037    45.355492 
   22950    1190.7141   -9868.7022   -9735.8763    60.612211    15084.113     45.34032 
   22960    1222.6738   -9872.5352   -9736.1441     533.3766    15072.225    45.334138 
   22970    1148.7897   -9864.5252    -9736.376    3217.7416     15060.79    45.342619 
   22980    1113.0174    -9860.631   -9736.4722    5241.2178    15050.931    45.369824 
   22990    1166.1143   -9866.4942   -9736.4124    6700.8334    15043.591    45.415647 
   23000     1167.509    -9866.488   -9736.2506    10269.907    15039.556    45.479554 
   23010    1152.4706   -9864.6021   -9736.0423    11891.907    15040.305     45.56546 
   23020    1192.1051   -9868.7972   -9735.8161    9933.2695    15046.522    45.678839 
   23030    1155.6966   -9864.4854   -9735.5657    8278.8488    15057.434    45.817096 
   23040    1150.1093    -9863.579   -9735.2825    7137.1592    15072.244    45.971746 
   23050    1167.1474   -9865.1061    -9734.909     5102.643    15090.341    46.134324 
   23060    1181.5888   -9866.2819   -9734.4739    1704.8132    15110.746     46.29948 
   23070    1147.3517   -9861.9625   -9733.9737   -1638.5906     15131.89    46.457238 
   23080    1098.4716   -9855.9044   -9733.3682   -5082.5835    15152.126    46.596809 
   23090    1166.4991   -9862.7261   -9732.6013   -10309.686    15169.714    46.712999 
   23100    1213.5795   -9867.1425   -9731.7659   -13555.055    15182.356    46.805031 
   23110    1139.7852   -9858.1842   -9731.0395   -12726.633    15188.607     46.87451 
   23120    1140.3574   -9857.5911   -9730.3825   -12790.392    15188.631    46.922339 
   23130    1209.0658   -9864.6134   -9729.7403   -12772.526    15182.502    46.942603 
   23140    1170.3984   -9859.7405   -9729.1808   -8244.8526    15170.483    46.928622 
   23150    1171.1885   -9859.3172   -9728.6694   -2838.9455    15154.606    46.883004 
   23160    1203.5036   -9862.3932   -9728.1405    2099.5311    15137.465    46.818499 
   23170    1173.0473   -9858.4722   -9727.6171      5357.32     15121.39     46.75111 
   23180    1224.5402   -9863.7634   -9727.1641    4839.6045    15107.826    46.690059 
   23190    1217.4531    -9862.608   -9726.7993    5123.7057     15096.71    46.635231 
   23200    1178.1391   -9857.9466   -9726.5234    6224.9402    15088.131    46.587509 
   23210    1179.9175   -9857.8772   -9726.2556    6982.1059    15082.562    46.549744 
   23220    1200.3707   -9859.8739   -9725.9708    6773.6601     15080.32    46.522782 
   23230     1245.728   -9864.6823   -9725.7194    5132.8497    15081.266     46.50364 
   23240    1243.5933   -9864.2984   -9725.5737    3434.5525    15084.629    46.487854 
   23250     1196.783   -9859.0211   -9725.5182    4145.2201     15089.75    46.473837 
   23260      1230.55   -9862.7831   -9725.5134    4018.3451    15096.777    46.465745 
   23270    1243.3033   -9864.2523     -9725.56    2192.5438    15105.594    46.467086 
   23280    1232.3726    -9863.155    -9725.682   -1350.6007    15115.354    46.479173 
   23290    1239.1159   -9864.1096   -9725.8844   -4817.5472    15124.444    46.497891 
   23300    1200.7869   -9860.0914   -9726.1418   -5420.8956    15131.332    46.515954 
   23310    1221.0151   -9862.6347   -9726.4286    -5196.215    15135.622    46.535962 
   23320     1241.584   -9865.2847   -9726.7841   -3110.8932    15137.489    46.566477 
   23330    1188.3118   -9859.7307   -9727.1728   -370.10476     15137.93    46.609141 
   23340    1259.4666    -9868.119   -9727.6236   -1587.0384    15138.008    46.658663 
   23350    1253.4323   -9868.0264   -9728.2041   -617.55131    15137.466    46.709565 
   23360    1191.2703   -9861.7428   -9728.8548    1120.8217    15136.654    46.762627 
   23370    1232.3991    -9867.024    -9729.548    1833.5713    15136.344    46.825552 
   23380     1218.858   -9866.2679   -9730.3024    3193.6803    15136.934    46.907936 
   23390    1180.2225   -9862.7146    -9731.059    3923.2985    15139.019    47.014675 
   23400    1228.2471   -9868.8191   -9731.8063    1214.7839    15142.833    47.146118 
   23410    1211.3533   -9867.6894   -9732.5611   -1404.1366    15147.228    47.292422 
   23420    1183.1627   -9865.2517   -9733.2681   -3246.6631     15150.97    47.438645 
   23430    1254.3124   -9873.9094    -9733.989    -4817.071    15153.155    47.571772 
   23440    1215.1853   -9870.3154   -9734.7596   -2768.7884    15153.181    47.681285 
   23450    1167.6121   -9865.7186   -9735.4697    142.94052    15151.933    47.765183 
   23460    1241.7004   -9874.6211   -9736.1076   -2101.7383     15150.53    47.828195 
   23470    1235.8546   -9874.6148   -9736.7534   -3659.4872    15148.184    47.870087 
   23480    1170.1717   -9867.8709   -9737.3365   -2895.7391    15144.206    47.892401 
   23490    1199.1516   -9871.5737   -9737.8065   -2905.2437    15138.818    47.896435 
   23500    1234.4685   -9875.9172   -9738.2103    -2797.866    15132.065    47.882838 
   23510    1234.1131   -9876.2911   -9738.6239   -1167.9671    15124.073    47.859327 
   23520    1192.4604   -9871.9966   -9738.9758     1111.255    15115.585    47.835507 
   23530    1218.9591    -9875.227   -9739.2503     1971.269     15107.59    47.811658 
   23540    1207.4711   -9874.1843   -9739.4891    3333.5524    15100.605    47.784534 
   23550    1194.9606   -9873.0097     -9739.71    3871.0342    15095.214    47.756687 
   23560    1212.3109   -9875.1871    -9739.952    3160.8861    15091.626     47.73071 
   23570    1133.6637   -9866.6144   -9740.1525    5714.9383    15089.718    47.706372 
   23580    1140.4895   -9867.4682   -9740.2449    7194.7762    15090.491    47.691028 
   23590    1226.4499   -9877.0769   -9740.2645    4757.8997    15094.513    47.693371 
   23600    1241.1226   -9878.7859   -9740.3368    2879.0573     15100.81    47.712271 
   23610    1205.8482   -9874.9941   -9740.4799    2882.0515    15108.538    47.746003 
   23620    1176.9777   -9871.9169   -9740.6232     2573.019    15117.605    47.798951 
   23630    1156.6517   -9869.6837   -9740.6574    1877.5884    15127.885    47.876709 
   23640    1204.8395   -9874.9799   -9740.5782   -1023.3377    15138.922    47.981133 
   23650    1192.9921   -9873.5355   -9740.4554   -2361.5656    15149.535    48.107805 
   23660    1189.5235   -9873.0383   -9740.3452   -4537.4458    15158.922    48.252027 
   23670    1225.5302   -9876.9345   -9740.2247   -6377.7911    15166.131    48.403724 
   23680     1170.844   -9870.7246   -9740.1152    -4684.568    15170.432    48.549072 
   23690     1134.275   -9866.5053   -9739.9752   -2373.2964      15172.5    48.682227 
   23700    1168.4182   -9870.0683   -9739.7294   -2428.7571    15173.323    48.803621 
   23710     1204.209   -9873.7408   -9739.4095   -3494.6547    15172.942    48.911015 
   23720     1232.741   -9876.6224   -9739.1082   -3601.4034    15170.919    48.999405 
   23730    1211.0501   -9873.9706   -9738.8762   -1988.6868    15167.259    49.069242 
   23740    1175.0373   -9869.7323   -9738.6551   -665.22149    15162.661    49.123255 
   23750    1210.9872   -9873.4769   -9738.3894   -528.24651      15157.7    49.162301 
   23760    1204.7098   -9872.4678   -9738.0806    1544.2168    15152.618    49.189728 
   23770    1183.9743   -9869.7998   -9737.7257     3042.454    15148.285    49.213393 
   23780    1222.9328   -9873.7155   -9737.2955    1868.2766    15145.309    49.240064 
   23790    1209.1265     -9871.66   -9736.7801    2458.6383    15143.352    49.272281 
   23800    1210.0133   -9871.1926   -9736.2138    2789.2873    15142.563    49.310236 
   23810    1235.0633   -9873.3515   -9735.5784    2655.0466    15143.108    49.349829 
   23820    1243.1128   -9873.6273   -9734.9562     2063.244    15144.895    49.383528 
   23830    1201.7895   -9868.4415   -9734.3801     2451.809    15147.704     49.40365 
   23840    1185.1152   -9865.9943    -9733.793    3203.1313    15151.699     49.40994 
   23850    1228.0627    -9870.105   -9733.1127    1975.2379    15157.105    49.411125 
   23860    1228.2732    -9869.376   -9732.3603    1193.6428    15163.432    49.418628 
   23870    1167.8502   -9861.8547   -9731.5792    1062.9803    15170.338    49.436648 
   23880     1201.163     -9864.68   -9730.6885   -1602.4119    15177.587    49.454505 
   23890    1218.5636   -9865.5676    -9729.635   -3584.0937    15184.034    49.456397 
   23900    1202.1407   -9862.6468   -9728.5462   -3386.9194    15188.833    49.436385 
   23910     1255.771   -9867.5435   -9727.4603   -5089.0656    15191.854    49.395905 
   23920    1246.8792   -9865.5463   -9726.4551   -4772.2304    15192.522    49.333478 
   23930    1235.1391   -9863.3895   -9725.6079   -2256.5474    15190.982        49.25 
   23940    1250.4109    -9864.329   -9724.8438    1373.1493    15188.429    49.154259 
   23950    1261.7018   -9864.9374   -9724.1926     3260.494    15186.476    49.060163 
   23960     1257.536   -9863.9738   -9723.6938    3387.7198    15186.051    48.980774 
   23970    1288.9165   -9867.1613   -9723.3808    2174.8812    15187.226    48.929124 
   23980    1264.7546   -9864.3422   -9723.2569    2085.7725    15189.481    48.913005 
   23990    1263.8703   -9864.3087   -9723.3221    2609.6295    15192.758    48.931991 
   24000    1300.4104   -9868.6483   -9723.5856    762.07099    15197.157    48.980284 
   24010    1277.9484   -9866.6251    -9724.068   -358.33018    15201.939    49.047817 
   24020    1266.8217   -9866.0691   -9724.7532   -1073.1993    15206.519    49.132666 
   24030    1228.1563   -9862.5403   -9725.5376   -1810.2035    15210.534    49.239798 
   24040    1231.4061   -9863.7329   -9726.3677   -2954.4574    15213.618    49.366731 
   24050    1220.9109   -9863.4002   -9727.2058   -2749.8906    15215.336     49.50597 
   24060     1253.087   -9867.8324   -9728.0487   -3088.8315    15215.679    49.655129 
   24070     1270.557    -9870.653   -9728.9205   -2728.9326     15214.54    49.808527 
   24080    1193.5265   -9862.8383   -9729.6987    365.74316    15212.269    49.957363 
   24090     1252.118   -9870.0468   -9730.3711   -1327.3042    15209.977     50.10033 
   24100    1292.3693   -9875.2546   -9731.0889   -3203.6971    15207.063    50.239313 
   24110    1214.7746   -9867.3251   -9731.8152   -2096.8263    15202.791    50.374552 
   24120    1212.9841    -9867.755   -9732.4448   -1594.0066    15197.516    50.503995 
   24130    1203.2497   -9867.1254   -9732.9011    239.82518    15191.605    50.618227 
   24140    1186.8386   -9865.6028   -9733.2092    2732.3573    15185.915    50.702436 
   24150    1205.4373    -9867.917   -9733.4487    4101.7078    15181.555    50.746809 
   24160    1214.3152   -9869.1595   -9733.7008    3813.8528    15179.181    50.753011 
   24170    1238.0427    -9872.131   -9734.0255    1991.3105    15178.613     50.72517 
   24180    1209.2242   -9869.3066   -9734.4158    1789.4526    15179.103    50.666065 
   24190    1175.0013   -9865.8645   -9734.7913    2513.1287    15180.503    50.580152 
   24200    1227.0622   -9872.0348   -9735.1542     2373.023    15183.053    50.469575 
   24210    1222.2936   -9871.8966   -9735.5479    2810.1236     15186.74    50.339222 
   24220    1209.4853   -9870.9136   -9735.9937    3061.6271     15191.72    50.199619 
   24230     1222.904   -9872.8657   -9736.4489     2010.499     15198.08    50.059345 
   24240    1217.2409   -9872.6677   -9736.8826    115.24281    15205.283    49.922955 
   24250    1197.4447   -9870.8574   -9737.2807   -832.75604    15212.486    49.788525 
   24260     1214.811   -9873.1744   -9737.6604   -830.15175    15219.232    49.655692 
   24270     1200.711   -9871.9574   -9738.0163   -76.308951    15225.505    49.531933 
   24280    1185.6737   -9870.6003   -9738.3366     1168.959    15231.672     49.43128 
   24290    1189.6297   -9871.3265   -9738.6216    89.146647    15238.196    49.375943 
   24300     1205.366   -9873.3912   -9738.9308    -2886.206    15244.564    49.377592 
   24310    1196.6402   -9872.7653   -9739.2783   -5582.3711     15249.45     49.42388 
   24320    1202.2694   -9873.7925   -9739.6776   -7527.4573    15251.576    49.489003 
   24330    1167.4629    -9870.309   -9740.0767   -6903.0264    15250.161    49.551634 
   24340    1192.7932   -9873.5248    -9740.467   -6443.2136    15245.412    49.608026 
   24350    1192.0833   -9873.8438   -9740.8651   -4928.5508    15237.694    49.663459 
   24360    1146.8613   -9869.1698   -9741.2357   -2215.3198    15227.788    49.726666 
   24370    1156.2139   -9870.5043   -9741.5269    461.36763    15216.989    49.805718 
   24380    1168.0738   -9872.0123   -9741.7119    3798.5548    15206.651    49.905471 
   24390    1194.2043   -9875.0333    -9741.818    6649.0126    15198.317    50.023476 
   24400    1211.1613   -9876.9979    -9741.891    7713.9684    15193.262    50.154866 
   24410    1205.0794    -9876.399   -9741.9706    7208.1399    15191.943    50.298754 
   24420    1200.1982   -9875.9354   -9742.0515    5242.1294    15194.047    50.453788 
   24430    1213.2595   -9877.4729   -9742.1319    1981.9597     15198.54    50.612715 
   24440    1179.0575   -9873.7286    -9742.203    680.55872    15203.964    50.762577 
   24450    1167.2396    -9872.453   -9742.2456    478.34125    15209.647    50.891945 
   24460    1182.4669   -9874.1567   -9742.2507    415.64533    15215.448    50.994688 
   24470     1162.677   -9871.9294    -9742.231     756.4056    15221.327    51.068301 
   24480    1161.5484   -9871.7397   -9742.1673   -222.70147    15227.373    51.115955 
   24490    1176.8788   -9873.2959   -9742.0133   -2104.0182    15233.132    51.145173 
   24500    1208.5546   -9876.6084   -9741.7923   -2370.8706    15237.816    51.155455 
   24510     1203.296   -9875.7777   -9741.5482    -1646.796    15241.278    51.139204 
   24520    1159.4925   -9870.6168   -9741.2736   -660.28457    15243.882    51.094381 
   24530    1167.3803   -9871.1264   -9740.9034   -1286.6947    15246.038     51.02859 
   24540    1194.3403   -9873.6338   -9740.4033   -2647.8201    15247.505    50.948977 
   24550    1182.3073   -9871.6686   -9739.7805   -2111.7487    15247.764    50.861385 
   24560    1205.1797   -9873.4876    -9739.048   -1634.2501    15246.967    50.774163 
   24570    1168.5089     -9868.56   -9738.2111    253.83036    15245.452    50.691835 
   24580    1136.8342   -9864.1034   -9737.2878    2216.4783    15244.105    50.615873 
   24590    1174.6037   -9867.2341   -9736.2052    2243.4821    15243.789    50.551661 
   24600     1208.342   -9869.8266   -9735.0343    362.78169    15244.476    50.505404 
   24610    1213.6814   -9869.2861   -9733.8981   -2433.7869    15245.267    50.478381 
   24620    1201.3284   -9866.8772   -9732.8673   -3122.7952     15244.98      50.4625 
   24630    1227.1427   -9868.8377   -9731.9481   -2397.8718     15243.29    50.445664 
   24640    1276.5308   -9873.5906   -9731.1916   -1188.2914    15240.506    50.425199 
   24650    1215.4118   -9866.2183   -9730.6373    2278.4461    15237.326    50.407148 
   24660    1199.7521   -9864.0464   -9730.2123    4573.2344    15235.273    50.403427 
   24670    1257.7464   -9870.1453   -9729.8418    3839.1339    15235.323    50.430004 
   24680    1212.9963   -9864.8843   -9729.5728    4129.7498    15237.278    50.494604 
   24690    1209.4244   -9864.2957   -9729.3826    3287.8944    15241.134    50.591804 
   24700    1263.4167   -9870.1683   -9729.2323    1685.1651    15246.472    50.707468 
   24710    1242.8692   -9867.8074   -9729.1634    203.80836    15252.517    50.826406 
   24720    1280.1622   -9872.0391   -9729.2351   -3333.8405    15258.424    50.937563 
   24730    1248.1276   -9868.6895    -9729.459   -5352.7447    15262.666    51.034202 
   24740    1196.5545   -9863.2535    -9729.776    -4595.786     15264.37     51.11437 
   24750    1257.8287    -9870.464   -9730.1513   -4941.8146    15263.759    51.179297 
   24760    1239.6725   -9868.9188   -9730.6315   -3189.8513    15260.899    51.226007 
   24770    1205.5754   -9865.6743   -9731.1906    612.18625    15256.654    51.255741 
   24780    1213.5764   -9867.1536   -9731.7773    2539.7919    15252.674    51.281211 
   24790    1193.6747   -9865.5374   -9732.3812    2762.5064    15249.946    51.316762 
   24800    1205.4527   -9867.4576   -9732.9875     1185.682    15248.538    51.370215 
   24810    1238.4051   -9871.7885   -9733.6425   -48.707256    15247.731    51.436875 
   24820    1213.8153   -9869.7605   -9734.3576    939.69169    15247.035    51.502613 
   24830    1201.8706   -9869.1779   -9735.1074    2294.9175     15246.83    51.560145 
   24840    1179.6418   -9867.4186   -9735.8278    4413.5197     15247.76    51.615203 
   24850    1204.0231   -9870.8003   -9736.4897    4801.8285    15250.725    51.675756 
   24860    1249.6336   -9876.5809   -9737.1824    3334.3888    15255.871    51.742237 
   24870    1180.9732   -9869.6359   -9737.8966    2619.7441    15262.585    51.805354 
   24880    1153.3986   -9867.1853   -9738.5219    1623.5119    15270.458    51.856127 
   24890    1178.7174   -9870.5013   -9739.0136   -424.70252    15278.939    51.894969 
   24900     1197.499   -9872.9933   -9739.4105   -1405.5645    15287.162    51.927158 
   24910    1213.9105   -9875.1851   -9739.7715   -2399.2007    15294.588    51.957212 
   24920    1201.2708   -9874.1287   -9740.1251   -4309.7145    15300.665    51.985085 
   24930    1171.9898    -9871.171   -9740.4338   -5111.9094    15304.639    52.000801 
   24940    1183.9861   -9872.7521   -9740.6767   -6880.0071    15306.002    51.993673 
   24950    1192.0125    -9873.855   -9740.8842   -6969.6746    15304.072    51.961687 
   24960    1138.8223   -9868.0681   -9741.0307   -5263.0558    15298.873    51.912113 
   24970    1153.9238    -9869.795    -9741.073   -4166.5672    15291.137    51.852697 
   24980    1192.4618   -9874.0399   -9741.0189   -1544.5177    15281.536    51.788073 
   24990    1183.5887   -9872.9461    -9740.915    1581.3735    15271.333    51.723262 
   25000    1193.4055   -9873.9115   -9740.7853    2203.7256    15261.906    51.666735 
Loop time of 17393.2 on 16 procs for 20000 steps with 864 atoms

Performance: 0.099 ns/day, 241.573 hours/ns, 1.150 timesteps/s
96.5% CPU use with 16 MPI tasks x 1 OpenMP threads

MPI task timing breakdown:
Section |  min time  |  avg time  |  max time  |%varavg| %total
---------------------------------------------------------------
Pair    | 6182.9     | 12961      | 17120      |3350.1 | 74.52
Bond    | 0.0014291  | 0.0045437  | 0.013469   |   4.5 |  0.00
Neigh   | 0.19985    | 0.37692    | 0.52284    |  20.0 |  0.00
Comm    | 269.63     | 4359.8     | 10973      |5644.9 | 25.07
Output  | 1.2129     | 1.2329     | 1.5252     |   6.8 |  0.01
Modify  | 1.0528     | 70.851     | 236.14     |1152.9 |  0.41
Other   |            | 0.08949    |            |       |  0.00

Nlocal:        54.0000 ave          77 max          25 min
Histogram: 1 3 0 4 0 0 0 0 4 4
Nghost:        608.188 ave         822 max         354 min
Histogram: 4 3 1 0 0 0 0 0 0 8
Neighs:         0.00000 ave           0 max           0 min
Histogram: 16 0 0 0 0 0 0 0 0 0
FullNghs:      3450.50 ave        5321 max        1401 min
Histogram: 4 0 4 0 0 0 0 0 7 1

Total # of neighbors = 55208
Ave neighs/atom = 63.898148
Ave special neighs/atom = 0.0000000
Neighbor list builds = 2000
Dangerous builds = 2000
Total wall time: 6:00:32
