LAMMPS (29 Sep 2021 - Update 3)
OMP_NUM_THREADS environment is not set. Defaulting to 1 thread. (src/comm.cpp:98)
  using 1 OpenMP thread(s) per MPI task
units	metal
atom_style	full

read_data	mixed.data
Reading data file ...
  orthogonal box = (0.0000000 0.0000000 0.0000000) to (18.492711 18.368364 83.044081)
  2 by 1 by 8 MPI processor grid
  reading atoms ...
  864 atoms
Finding 1-2 1-3 1-4 neighbors ...
  special bond factors lj:    0        0        0       
  special bond factors coul:  0        0        0       
     0 = max # of 1-2 neighbors
     0 = max # of 1-3 neighbors
     0 = max # of 1-4 neighbors
     1 = max # of special neighbors
  special bonds CPU = 0.001 seconds
  read_data CPU = 0.028 seconds

pair_style	quip
pair_coeff	* * /ocean/projects/cts180021p/wuziqi/clease/mint-PD/PhaseDiagram-Clease/Liquid/GAP_potential/gap_LiKCl.xml "Potential xml_label=GAP_2021_9_27_0_1_17_37_618" 17 19 3

neighbor	0.3 bin
neigh_modify	delay 10

timestep	0.001
compute	msd all msd
thermo_style	custom step temp pe etotal press vol c_msd[4]
thermo	10
dump	1 all custom 10 xyz-mix.dump type id x y z
dump	2 all custom 10 force-mix.dump type id fx fy fz

fix     1 all nve
run     2000
Neighbor list info ...
  update every 1 steps, delay 10 steps, check yes
  max neighbors/atom: 2000, page size: 100000
  master list distance cutoff = 6.22
  ghost atom cutoff = 6.22
  binsize = 3.11, bins = 6 6 27
  1 neighbor lists, perpetual/occasional/extra = 1 0 0
  (1) pair quip, perpetual
      attributes: full, newton on
      pair build: full/bin
      stencil: full/bin/3d
      bin: standard
Per MPI rank memory allocation (min/avg/max) = 8.888 | 8.895 | 8.900 Mbytes
Step Temp PotEng TotEng Press Volume c_msd[4] 
       0            0   -7973.6696   -7973.6696   -2874.2394    28208.484            0 
      10    41.278351   -7978.2784   -7973.6737   -2959.4518    28208.484 0.00023887099 
      20    117.01377   -7986.7312   -7973.6782   -2971.9336    28208.484 0.0029537371 
      30    174.81925   -7993.1785   -7973.6771   -2824.2466    28208.484  0.010160551 
      40    218.44962    -7998.045   -7973.6766   -2720.6333    28208.484  0.020641735 
      50    256.00476   -8002.2349   -7973.6771   -2700.3711    28208.484  0.032489043 
      60    281.23595   -8005.0509   -7973.6786   -2720.3164    28208.484  0.045481137 
      70    279.84796   -8004.8936   -7973.6762   -2497.2427    28208.484  0.060875411 
      80    275.57271   -8004.4166   -7973.6761   -2346.6282    28208.484  0.078472831 
      90    275.14134   -8004.3684    -7973.676   -2375.5075    28208.484  0.097756432 
     100    277.97329   -8004.6843   -7973.6759   -2450.2098    28208.484   0.11838341 
     110    284.32121   -8005.3929   -7973.6764   -2585.3887    28208.484    0.1397563 
     120    288.42818   -8005.8514   -7973.6768   -2555.7238    28208.484   0.16133553 
     130    287.27066   -8005.7216   -7973.6761   -2379.8786    28208.484   0.18293983 
     140    286.58177   -8005.6454   -7973.6767   -2199.4073    28208.484   0.20440576 
     150    283.09159    -8005.256   -7973.6767   -2058.8623    28208.484   0.22545748 
     160    281.87093     -8005.12   -7973.6769   -2002.9487    28208.484   0.24504756 
     170    281.00839    -8005.024   -7973.6771   -2057.3307    28208.484   0.26222423 
     180    282.68046     -8005.21   -7973.6765   -2118.7926    28208.484   0.27648184 
     190    291.53832   -8006.1995   -7973.6779   -2237.0667    28208.484   0.28923786 
     200    293.64302   -8006.4325   -7973.6762   -2373.3356    28208.484   0.30372277 
     210    298.64228   -8006.9936   -7973.6796   -2435.1957    28208.484   0.32052492 
     220    292.65421   -8006.3221   -7973.6761   -2273.8456    28208.484   0.33666335 
     230    296.18967   -8006.7198   -7973.6794   -2277.4624    28208.484   0.34931106 
     240    282.07352   -8005.1401   -7973.6743   -2198.7147    28208.484   0.36070053 
     250    293.47873    -8006.417    -7973.679   -2346.9356    28208.484   0.37209929 
     260    294.86866   -8006.5718   -7973.6788   -2406.0825    28208.484   0.38456478 
     270    292.66954   -8006.3399   -7973.6921   -2371.6679    28208.484   0.39632792 
     280    288.22645   -8005.8424   -7973.6903   -2343.9303    28208.484   0.40740341 
     290    280.03766   -8004.9272   -7973.6886   -2399.6918    28208.484   0.41930862 
     300    280.42672   -8004.9707   -7973.6886   -2493.7264    28208.484   0.43203295 
     310    287.66524   -8005.7795     -7973.69   -2540.7382    28208.484   0.44617059 
     320    287.59248   -8005.7709   -7973.6895   -2479.6365    28208.484   0.46153129 
     330    287.30367   -8005.7384   -7973.6892   -2430.7941    28208.484   0.47558463 
     340      291.107   -8006.1632   -7973.6897   -2433.3574    28208.484   0.48761679 
     350    290.07985   -8006.0486   -7973.6898   -2407.8749    28208.484   0.49931209 
     360    283.46216   -8005.3096    -7973.689    -2324.857    28208.484   0.51138392 
     370    283.31611   -8005.2933    -7973.689   -2223.9029    28208.484   0.52363749 
     380    293.81781   -8006.4657   -7973.6899   -2201.7975    28208.484   0.53571675 
     390    300.79692   -8007.2454   -7973.6911   -2203.1603    28208.484   0.54763687 
     400    296.63974     -8006.78   -7973.6894   -2207.2978    28208.484   0.55946952 
     410     295.9675   -8006.7055   -7973.6899    -2389.454    28208.484   0.57119336 
     420    296.34311   -8006.7466   -7973.6891   -2528.2941    28208.484   0.58115249 
     430    302.08464   -8007.3879   -7973.6899   -2546.6384    28208.484   0.58802692 
     440    300.89773   -8007.2566    -7973.691   -2408.1467    28208.484   0.59313659 
     450    295.75798   -8006.6815   -7973.6893   -2201.4544    28208.484   0.59704421 
     460    298.71554   -8007.0127   -7973.6905   -2097.6901    28208.484   0.60034051 
     470    293.57038   -8006.4367   -7973.6885   -1853.8963    28208.484   0.60455383 
     480    299.68957   -8007.1205   -7973.6897   -1687.1392    28208.484   0.60898733 
     490    304.28303    -8007.634   -7973.6908   -1569.5251    28208.484   0.61372446 
     500    297.76534   -8006.9049   -7973.6887   -1520.9163    28208.484   0.61909997 
     510     298.0343    -8006.936   -7973.6898   -1578.3555    28208.484     0.624484 
     520    298.51386   -8006.9892   -7973.6895   -1617.2528    28208.484   0.63055005 
     530    299.67651    -8007.119   -7973.6896   -1583.6011    28208.484   0.63765456 
     540    301.93935   -8007.3714   -7973.6896    -1486.536    28208.484   0.64551302 
     550    304.04909   -8007.6074   -7973.6903   -1392.2763    28208.484    0.6536082 
     560    304.32541   -8007.6381   -7973.6901   -1287.1967    28208.484   0.66116979 
     570    303.65289   -8007.5627   -7973.6898   -1155.3607    28208.484   0.66831766 
     580    306.61685   -8007.8931   -7973.6895   -1197.3354    28208.484   0.67540713 
     590    314.13334   -8008.7329   -7973.6909   -1349.2051    28208.484   0.68183493 
     600    314.58012   -8008.7816   -7973.6897   -1383.1623    28208.484   0.68848067 
     610    313.36382   -8008.6461   -7973.6899   -1339.6031    28208.484   0.69624527 
     620     312.9428   -8008.5985   -7973.6893   -1300.0364    28208.484   0.70606469 
     630    317.72028    -8009.132   -7973.6899   -1341.7477    28208.484   0.71807814 
     640    322.57063   -8009.6733   -7973.6901   -1410.5145    28208.484   0.73069429 
     650    323.60168   -8009.7886   -7973.6903   -1540.2113    28208.484   0.74223138 
     660    318.39172   -8009.2068   -7973.6897   -1568.6259    28208.484   0.75263353 
     670    316.27474   -8008.9702   -7973.6892   -1586.0839    28208.484    0.7619451 
     680    320.95534   -8009.4935   -7973.6904   -1558.4885    28208.484   0.77150239 
     690    319.85933   -8009.3708     -7973.69    -1459.468    28208.484   0.78296875 
     700    315.81982   -8008.9199   -7973.6897   -1330.2989    28208.484   0.79605918 
     710    316.18394   -8008.9601   -7973.6893   -1285.6029    28208.484   0.80930055 
     720    321.99795   -8009.6098   -7973.6904   -1374.2337    28208.484   0.82124899 
     730    320.60154   -8009.4538   -7973.6902   -1440.5044    28208.484   0.83277534 
     740    316.58517   -8009.0043   -7973.6888   -1452.0725    28208.484    0.8439361 
     750    321.27163   -8009.5293    -7973.691   -1655.1798    28208.484     0.854338 
     760    314.38368   -8008.7598   -7973.6899   -1838.5562    28208.484   0.86584884 
     770     305.9368   -8007.8166   -7973.6889   -1999.9526    28208.484   0.87941766 
     780    305.71483   -8007.7927   -7973.6897   -2140.7584    28208.484   0.89394007 
     790    305.84031   -8007.8065   -7973.6896   -2209.2571    28208.484   0.90782838 
     800    306.48205   -8007.8784   -7973.6899   -2275.1918    28208.484   0.92026204 
     810    304.33355   -8007.6388   -7973.6899   -2343.4421    28208.484   0.93178116 
     820    297.82924   -8006.9125   -7973.6892   -2314.2529    28208.484    0.9431626 
     830    296.11711   -8006.7216   -7973.6893   -2340.1192    28208.484   0.95457823 
     840    299.50491   -8007.0998   -7973.6896   -2406.4366    28208.484   0.96506277 
     850    304.52466   -8007.6597   -7973.6895   -2460.7845    28208.484   0.97329313 
     860     310.8399   -8008.3649   -7973.6902   -2449.0401    28208.484   0.97916609 
     870    310.67413   -8008.3459   -7973.6897   -2327.6881    28208.484   0.98350092 
     880    309.42712   -8008.2065   -7973.6894   -2225.4629    28208.484   0.98651824 
     890    311.26126   -8008.4116   -7973.6899    -2248.854    28208.484   0.98981853 
     900    313.26109   -8008.6341   -7973.6893   -2271.1415    28208.484     0.995508 
     910    320.18937   -8009.4082   -7973.6906   -2399.0494    28208.484    1.0049166 
     920    319.06768   -8009.2826   -7973.6901    -2517.896    28208.484    1.0179539 
     930    311.48412   -8008.4358   -7973.6893   -2630.8665    28208.484    1.0322955 
     940    307.33364   -8007.9728   -7973.6893   -2692.4224    28208.484    1.0452919 
     950    306.79072   -8007.9125   -7973.6895   -2690.0291    28208.484    1.0559933 
     960    307.40028   -8007.9805   -7973.6895    -2685.778    28208.484    1.0648912 
     970    308.12458   -8008.0613   -7973.6895   -2650.3957    28208.484    1.0729687 
     980    308.40186   -8008.0924   -7973.6897   -2580.8757    28208.484    1.0808973 
     990    307.35297   -8007.9752   -7973.6895    -2481.356    28208.484    1.0887898 
    1000    307.21435     -8007.96   -7973.6898   -2353.6684    28208.484    1.0961224 
    1010    306.76152   -8007.9091   -7973.6894   -2248.7956    28208.484    1.1027335 
    1020    309.26646    -8008.189   -7973.6898   -2286.0041    28208.484    1.1099454 
    1030    310.25342   -8008.2989   -7973.6897   -2305.1256    28208.484    1.1183111 
    1040    307.62812   -8008.0062   -7973.6898    -2294.831    28208.484    1.1271276 
    1050    300.85261   -8007.2498   -7973.6892   -2274.7356    28208.484    1.1353455 
    1060    298.03491   -8006.9356   -7973.6894   -2274.0022    28208.484    1.1412949 
    1070     298.1827   -8006.9525   -7973.6898   -2240.2755    28208.484    1.1449307 
    1080    298.32389   -8006.9674   -7973.6889   -2186.0158    28208.484    1.1478628 
    1090    304.12167   -8007.6156   -7973.6903   -2224.5843    28208.484    1.1507358 
    1100    303.21342   -8007.5135   -7973.6896   -2273.1413    28208.484    1.1542182 
    1110    302.55349   -8007.4391   -7973.6888   -2350.8777    28208.484    1.1583885 
    1120    311.89752   -8008.4827   -7973.6901   -2437.4889    28208.484     1.162828 
    1130    317.78566     -8009.14   -7973.6905   -2446.8483    28208.484     1.167408 
    1140    311.56568   -8008.4454   -7973.6898   -2410.0182    28208.484    1.1717043 
    1150    303.07264   -8007.4971   -7973.6889   -2380.3816    28208.484    1.1751291 
    1160    303.70308   -8007.5677   -7973.6892    -2470.872    28208.484    1.1775178 
    1170    310.51899   -8008.3284   -7973.6895   -2617.7569    28208.484    1.1788381 
    1180    316.91994   -8009.0426   -7973.6898   -2682.3818    28208.484    1.1790698 
    1190    320.34041   -8009.4241   -7973.6896   -2666.8258    28208.484    1.1789053 
    1200    321.06279   -8009.5055   -7973.6905   -2603.0061    28208.484    1.1796194 
    1210    314.26027   -8008.7456   -7973.6894   -2485.4053    28208.484    1.1821764 
    1220    309.32884    -8008.196   -7973.6899    -2464.998    28208.484    1.1865082 
    1230    306.19371   -8007.8458   -7973.6895   -2530.8384    28208.484    1.1911967 
    1240    306.63151   -8007.8948   -7973.6896   -2616.4378    28208.484    1.1944331 
    1250    309.06475   -8008.1663   -7973.6897   -2607.8093    28208.484    1.1957913 
    1260    312.48643   -8008.5482   -7973.6898    -2462.899    28208.484    1.1957707 
    1270    312.94072   -8008.5995   -7973.6905   -2234.5909    28208.484    1.1949586 
    1280    309.44145   -8008.2076   -7973.6889   -2027.1289    28208.484    1.1941489 
    1290    314.87458   -8008.8149   -7973.6902   -1974.2087    28208.484    1.1943163 
    1300    319.36818   -8009.3159   -7973.6899   -1982.4404    28208.484     1.195877 
    1310    321.84143   -8009.5922   -7973.6903   -1943.5386    28208.484    1.1987306 
    1320    321.73486     -8009.58     -7973.69    -1845.706    28208.484    1.2036004 
    1330    320.53672   -8009.4466   -7973.6902   -1700.8294    28208.484    1.2106875 
    1340    314.45984   -8008.7682   -7973.6898   -1509.1942    28208.484    1.2186301 
    1350    308.88407   -8008.1459   -7973.6894   -1443.5528    28208.484    1.2257175 
    1360    308.85021   -8008.1421   -7973.6894   -1546.3935    28208.484    1.2310073 
    1370    314.64585   -8008.7893   -7973.6901   -1721.3694    28208.484     1.234708 
    1380    316.29012   -8008.9734   -7973.6908   -1817.9195    28208.484    1.2377498 
    1390    307.32275   -8007.9718   -7973.6895   -1803.5548    28208.484    1.2409119 
    1400    301.76471   -8007.3515   -7973.6892   -1859.1426    28208.484    1.2443267 
    1410    303.86241   -8007.5861   -7973.6897   -1936.9087    28208.484    1.2481193 
    1420    306.88628   -8007.9231   -7973.6894   -1917.1497    28208.484    1.2526965 
    1430    311.21927   -8008.4068   -7973.6898   -1887.7633    28208.484    1.2583105 
    1440    313.42496   -8008.6528   -7973.6898   -1851.4527    28208.484    1.2642026 
    1450     313.3569   -8008.6451   -7973.6897   -1798.7574    28208.484     1.269636 
    1460    313.21275   -8008.6295   -7973.6901   -1825.1156    28208.484    1.2754342 
    1470    309.64761   -8008.2313   -7973.6896   -1804.0626    28208.484    1.2823313 
    1480    309.40126   -8008.2029   -7973.6887   -1783.0935    28208.484    1.2890305 
    1490    320.42565   -8009.4341   -7973.6901   -1893.3186    28208.484    1.2938055 
    1500    328.10175   -8010.2905   -7973.6903   -1974.4184    28208.484    1.2976917 
    1510    327.81197   -8010.2577   -7973.6898    -1937.058    28208.484    1.3022885 
    1520     324.2243   -8009.8576   -7973.6899   -1828.5619    28208.484    1.3070588 
    1530    318.99753   -8009.2739   -7973.6893   -1744.3097    28208.484    1.3111416 
    1540    315.99968   -8008.9401   -7973.6899   -1679.5222    28208.484    1.3147163 
    1550    311.82694   -8008.4737   -7973.6889   -1676.3191    28208.484     1.318865 
    1560    315.99733   -8008.9396   -7973.6896   -1782.1266    28208.484    1.3245612 
    1570    321.70035   -8009.5765   -7973.6904   -1943.6277    28208.484    1.3315419 
    1580    318.91113   -8009.2648   -7973.6898   -1980.5418    28208.484     1.338424 
    1590    316.40503   -8008.9842   -7973.6888   -1871.1257    28208.484    1.3448929 
    1600    323.69059   -8009.7984   -7973.6903   -1863.2593    28208.484    1.3517889 
    1610    324.55521    -8009.895   -7973.6903   -1926.3043    28208.484    1.3589892 
    1620    317.22283   -8009.0757    -7973.689    -2033.451    28208.484    1.3640281 
    1630    315.56944   -8008.8917   -7973.6895   -2189.5743    28208.484    1.3650114 
    1640          316   -8008.9396   -7973.6894   -2246.5115    28208.484     1.363698 
    1650     317.3618   -8009.0917   -7973.6895   -2167.3771    28208.484    1.3628757 
    1660    317.92845   -8009.1553   -7973.6899   -2101.0814    28208.484    1.3639966 
    1670    314.61233   -8008.7852   -7973.6897   -2010.9785    28208.484    1.3669961 
    1680    312.18324   -8008.5133   -7973.6888   -2055.2147    28208.484     1.371293 
    1690    317.45918   -8009.1028   -7973.6897    -2191.224    28208.484    1.3761955 
    1700    321.08797   -8009.5076   -7973.6898   -2266.1824    28208.484    1.3813209 
    1710    322.36089   -8009.6492   -7973.6893   -2262.0514    28208.484    1.3861808 
    1720    325.18317   -8009.9643   -7973.6896   -2258.3202    28208.484    1.3904451 
    1730    326.15411   -8010.0728   -7973.6898    -2317.316    28208.484     1.394947 
    1740     323.8725   -8009.8181   -7973.6896   -2287.8062    28208.484    1.4007384 
    1750    320.41839   -8009.4325   -7973.6894   -2200.4994    28208.484    1.4075406 
    1760     319.2517   -8009.3028   -7973.6898   -2148.7833    28208.484     1.414045 
    1770    317.70647   -8009.1306     -7973.69    -2060.265    28208.484    1.4199919 
    1780    313.91842   -8008.7076   -7973.6895   -1900.1987    28208.484    1.4259827 
    1790    313.00692   -8008.6058   -7973.6894   -1752.6987    28208.484    1.4322179 
    1800     316.3606   -8008.9805     -7973.69   -1656.4741    28208.484    1.4376798 
    1810    317.06323    -8009.059   -7973.6901   -1611.9912    28208.484    1.4414287 
    1820    314.75826    -8008.801   -7973.6892    -1594.078    28208.484    1.4434919 
    1830    319.39788   -8009.3191   -7973.6898   -1580.2478    28208.484    1.4448335 
    1840    326.94741   -8010.1618   -7973.6903   -1586.0007    28208.484    1.4478206 
    1850     328.2751   -8010.3099   -7973.6903   -1510.9657    28208.484    1.4534245 
    1860    325.54844   -8010.0044    -7973.689   -1434.8489    28208.484    1.4597334 
    1870    330.22766   -8010.5276   -7973.6902   -1485.8246    28208.484    1.4649668 
    1880    331.47708   -8010.6665   -7973.6897   -1548.2944    28208.484    1.4702024 
    1890    330.21474   -8010.5256   -7973.6896   -1516.0861    28208.484    1.4764703 
    1900    331.58833   -8010.6782    -7973.689   -1442.8287    28208.484    1.4834549 
    1910    337.92691   -8011.3872    -7973.691   -1475.0881    28208.484    1.4904186 
    1920     332.3277   -8010.7614   -7973.6897   -1417.3686    28208.484    1.4973123 
    1930    326.40875   -8010.1005   -7973.6891    -1294.946    28208.484    1.5028962 
    1940    327.61985   -8010.2367   -7973.6902   -1344.4187    28208.484    1.5071937 
    1950    326.33555   -8010.0933   -7973.6901   -1454.2005    28208.484    1.5117741 
    1960    320.98412   -8009.4961   -7973.6898    -1539.947    28208.484    1.5179832 
    1970    316.38994    -8008.983   -7973.6892   -1494.5471    28208.484    1.5266599 
    1980    318.66568   -8009.2379   -7973.6903    -1430.619    28208.484     1.537506 
    1990    319.09324   -8009.2848   -7973.6895   -1383.3475    28208.484     1.548395 
    2000    324.20331   -8009.8559   -7973.6905   -1553.3118    28208.484     1.556546 
Loop time of 1160.97 on 16 procs for 2000 steps with 864 atoms

Performance: 0.149 ns/day, 161.247 hours/ns, 1.723 timesteps/s
97.9% CPU use with 16 MPI tasks x 1 OpenMP threads

MPI task timing breakdown:
Section |  min time  |  avg time  |  max time  |%varavg| %total
---------------------------------------------------------------
Pair    | 565.81     | 931.9      | 1152.6     | 532.8 | 80.27
Bond    | 0.00014806 | 0.00046518 | 0.00097346 |   0.0 |  0.00
Neigh   | 0.021121   | 0.025182   | 0.031919   |   1.9 |  0.00
Comm    | 7.4304     | 224.9      | 594.2      |1091.8 | 19.37
Output  | 0.43266    | 4.0272     | 12.479     | 213.8 |  0.35
Modify  | 0.007674   | 0.0098884  | 0.012804   |   1.1 |  0.00
Other   |            | 0.1083     |            |       |  0.01

Nlocal:        54.0000 ave          63 max          48 min
Histogram: 5 0 1 2 2 1 1 2 0 2
Nghost:        409.688 ave         449 max         386 min
Histogram: 3 3 1 3 2 1 1 0 0 2
Neighs:         0.00000 ave           0 max           0 min
Histogram: 16 0 0 0 0 0 0 0 0 0
FullNghs:      1604.62 ave        2106 max        1301 min
Histogram: 5 0 2 2 2 0 2 1 1 1

Total # of neighbors = 25674
Ave neighs/atom = 29.715278
Ave special neighs/atom = 0.0000000
Neighbor list builds = 199
Dangerous builds = 198
unfix   1

velocity    all create 675.0 1312343 dist gaussian
fix     2 all npt temp 675.0 675.0 $(100.0*dt) aniso 0.0 1.01325 $(1000.0*dt)
fix     2 all npt temp 675.0 675.0 0.10000000000000000555 aniso 0.0 1.01325 $(1000.0*dt)
fix     2 all npt temp 675.0 675.0 0.10000000000000000555 aniso 0.0 1.01325 1
run     3000
Per MPI rank memory allocation (min/avg/max) = 8.893 | 8.897 | 8.900 Mbytes
Step Temp PotEng TotEng Press Volume c_msd[4] 
    2000          675   -8009.8559   -7934.5586   -71.577783    28208.484     1.556546 
    2010    638.23729   -8005.7431   -7934.5468    101.48101    28208.439    1.5583193 
    2020    580.76564   -7999.2465   -7934.4612    368.86485    28208.719    1.5621762 
    2030    542.32548   -7994.7096   -7934.2124    682.02168    28210.112    1.5664244 
    2040    518.62597   -7991.5976   -7933.7441    992.20523    28213.543    1.5725085 
    2050    505.74324   -7989.4622   -7933.0458    1119.1041    28219.885    1.5826202 
    2060    503.30712   -7988.3186   -7932.1739     1086.724    28229.529    1.5972249 
    2070     502.4763   -7987.3136   -7931.2617    861.91884    28242.372    1.6145419 
    2080    509.79279     -7987.29   -7930.4218    394.63112    28257.743    1.6319335 
    2090     509.4592   -7986.4897   -7929.6588   -14.941493    28274.352    1.6489274 
    2100    499.20537   -7984.6094   -7928.9222   -227.76914    28291.006    1.6663433 
    2110     493.4223    -7983.188    -7928.146   -218.09831     28307.09     1.683364 
    2120    494.47744   -7982.4487    -7927.289    -77.59116    28322.606    1.6988841 
    2130    496.85455   -7981.7761   -7926.3513   -6.4484364    28337.927    1.7126521 
    2140    505.23233    -7981.709   -7925.3495   -130.17731    28353.234    1.7237575 
    2150    523.45735   -7982.6871   -7924.2946   -321.71403    28368.195    1.7315392 
    2160    539.13641   -7983.3468   -7923.2053   -409.91294    28382.265    1.7373629 
    2170    549.11405   -7983.3663   -7922.1118   -502.87244    28395.142    1.7430615 
    2180    558.80435    -7983.352   -7921.0165   -642.70034    28406.543    1.7501701 
    2190     561.0741   -7982.5076    -7919.919    -612.3833    28416.114    1.7600265 
    2200    559.63093   -7981.2486   -7918.8209   -599.67308    28423.869    1.7723124 
    2210    556.01435   -7979.7398   -7917.7155   -587.84971    28429.849    1.7844704 
    2220    549.92777    -7977.945   -7916.5997   -536.36881    28434.098    1.7930767 
    2230    557.51778   -7977.6547   -7915.4628   -563.14497    28436.726    1.7962899 
    2240    569.49574   -7977.8268   -7914.2987   -494.41908    28437.697    1.7968419 
    2250     571.9118   -7976.9296   -7913.1319    -208.4578     28437.25    1.7995514 
    2260    577.28058   -7976.3715    -7911.975    37.451897    28436.173    1.8066627 
    2270    584.38361   -7976.0054   -7910.8165    171.26031    28435.202    1.8180085 
    2280    585.51538   -7974.9779   -7909.6628    219.01292    28434.727    1.8334321 
    2290    589.59787   -7974.2879   -7908.5174    338.68408     28434.94    1.8522669 
    2300    598.23453    -7974.104     -7907.37    532.76288      28436.2    1.8713044 
    2310    607.42807   -7973.9862   -7906.2267    624.19721    28439.038    1.8870728 
    2320    610.70124   -7973.2195   -7905.0949    687.37682    28443.772      1.89809 
    2330    617.65154   -7972.8785   -7903.9786    605.54969    28450.564    1.9039433 
    2340    633.99946   -7973.5924   -7902.8688    366.66723    28459.202    1.9065438 
    2350    645.73528     -7973.81   -7901.7772    94.975832    28469.013    1.9096019 
    2360    644.68055   -7972.6445   -7900.7294   -117.71622    28479.188    1.9163195 
    2370    642.25066    -7971.369   -7899.7249   -158.45476    28489.123    1.9280075 
    2380    639.52641   -7970.0881    -7898.748    -62.63438    28498.675    1.9437985 
    2390     627.8934   -7967.8307   -7897.7882    203.49759    28508.159     1.962272 
    2400    624.87784   -7966.5376   -7896.8315    392.49626    28518.314    1.9818053 
    2410     638.0957   -7967.0314   -7895.8509    383.02677    28529.693    1.9998049 
    2420    655.47691   -7967.9752   -7894.8558     255.7323     28542.29    2.0135035 
    2430    669.11279   -7968.5203   -7893.8798    203.01416      28555.8    2.0217998 
    2440    679.88138   -7968.7941   -7892.9523    185.19935    28570.059    2.0278298 
    2450    679.22279   -7967.8579   -7892.0896    232.02408    28585.023    2.0375197 
    2460    677.61352   -7966.8838    -7891.295    212.58041    28600.802    2.0546374 
    2470    674.81375   -7965.8265     -7890.55    163.07061    28617.366    2.0784334 
    2480    676.34595   -7965.2908   -7889.8434    139.84563    28634.589    2.1042804 
    2490    678.56203   -7964.8608   -7889.1662    179.39775    28652.428    2.1276813 
    2500    681.89979   -7964.5848   -7888.5179    99.761638    28670.968    2.1470848 
    2510    694.97943   -7965.4225   -7887.8965   -276.87095    28689.898    2.1630572 
    2520    695.04643   -7964.8521   -7887.3187    -426.1687    28708.231    2.1779678 
    2530    692.85835   -7964.0888   -7886.7994   -431.28051    28725.464    2.1950094 
    2540    697.32133    -7964.119   -7886.3317   -403.81599    28741.556    2.2158248 
    2550    699.51699   -7963.9523   -7885.9201   -350.74554    28756.574    2.2392021 
    2560    689.30412   -7962.4586   -7885.5657   -272.08135    28770.677    2.2617976 
    2570    687.57759   -7961.9574   -7885.2571    -287.0211    28784.048    2.2805775 
    2580    681.45289   -7960.9924   -7884.9753   -98.032101    28796.741    2.2967487 
    2590    672.33218   -7959.7085   -7884.7089    34.557964    28809.251    2.3132524 
    2600    670.97134   -7959.2838   -7884.4359   -8.3965589    28821.963    2.3304838 
    2610    681.34544   -7960.1592   -7884.1541   -172.78894    28834.758    2.3477144 
    2620    695.33887   -7961.4473   -7883.8812   -406.78222    28847.142    2.3656435 
    2630    695.97515    -7961.284    -7883.647   -510.49248    28858.448    2.3850797 
    2640    684.75411   -7959.8439   -7883.4586   -477.51572    28868.334     2.404014 
    2650    678.09171   -7958.9415   -7883.2994   -351.82732    28876.863    2.4196493 
    2660    664.53621   -7957.2745   -7883.1444   -109.08336     28884.43    2.4321634 
    2670    665.89369   -7957.2569   -7882.9755   -85.343841    28891.683    2.4441667 
    2680     677.5089   -7958.3643   -7882.7871   -283.20516    28898.707     2.457403 
    2690    684.76932   -7958.9886   -7882.6015   -435.11278    28904.976    2.4717932 
    2700    683.65465   -7958.6963   -7882.4336     -591.201     28909.98    2.4868939 
    2710    684.45003   -7958.6381   -7882.2867   -796.97773    28913.186    2.5016307 
    2720    688.78441   -7958.9966   -7882.1616   -962.05515    28913.965    2.5152851 
    2730    695.02504   -7959.6002   -7882.0691   -999.64707    28911.802    2.5280675 
    2740    698.43185     -7959.93   -7882.0189   -831.38867    28906.571     2.542291 
    2750    698.96031   -7959.9918   -7882.0218   -678.21566    28898.663    2.5597453 
    2760    692.90979   -7959.3665   -7882.0714   -477.36341    28888.557    2.5783238 
    2770    697.92129   -7960.0244   -7882.1702   -355.73356    28876.793    2.5943645 
    2780    690.61267   -7959.3537   -7882.3148   -207.51365    28863.786     2.606415 
    2790    686.90899   -7959.1255   -7882.4998   -256.57607    28849.895    2.6138911 
    2800    686.60125    -7959.309   -7882.7176   -440.05372    28834.976     2.619059 
    2810    679.08399   -7958.7119   -7882.9591    -444.1798    28818.539    2.6268504 
    2820    680.42468   -7959.1216   -7883.2192   -406.35165    28800.468    2.6391297 
    2830    673.95682   -7958.6629    -7883.482   -201.10532    28780.919    2.6542126 
    2840      680.807   -7959.6914   -7883.7464   -18.824736    28760.436    2.6704565 
    2850    685.30998   -7960.4715   -7884.0241    114.42975    28739.574    2.6868144 
    2860    673.40561   -7959.4317   -7884.3123    210.44995    28718.754    2.7013209 
    2870    668.97496   -7959.2231    -7884.598    152.57549     28698.21    2.7115784 
    2880    673.59977   -7960.0138   -7884.8727    97.299077    28677.827    2.7176453 
    2890    679.46548   -7960.9458   -7885.1504    19.018449     28657.42    2.7224932 
    2900    671.27483   -7960.3102   -7885.4285    75.459892    28636.801    2.7292483 
    2910    676.09222   -7961.1237   -7885.7046    94.599677    28616.069    2.7397254 
    2920    673.38736   -7961.0981   -7885.9807    253.74996    28595.341     2.754779 
    2930    651.93124   -7958.9599    -7886.236    576.58166     28575.12      2.77015 
    2940    650.21387   -7958.9764   -7886.4441     633.7735    28556.263    2.7802797 
    2950    656.72897   -7959.8632   -7886.6041    518.25766    28538.995    2.7859156 
    2960     658.7684   -7960.2131   -7886.7265    368.02963    28523.009    2.7900542 
    2970     666.5517   -7961.1764   -7886.8215    228.36689    28507.886    2.7926587 
    2980    678.08485   -7962.5463   -7886.9049    170.14058    28493.234     2.794046 
    2990    681.44136   -7963.0166   -7887.0008    234.92396    28478.874    2.7982434 
    3000    662.88275   -7961.0497   -7887.1042    479.26905    28465.037    2.8091627 
    3010    644.65617   -7959.0906   -7887.1783    702.47656     28452.41    2.8252569 
    3020    646.42336   -7959.3012   -7887.1917      774.806    28441.665    2.8422138 
    3030    650.84187   -7959.7405   -7887.1381    645.54728    28433.032     2.857772 
    3040    648.82565    -7959.405   -7887.0276    564.42846    28426.232    2.8718262 
    3050    655.26855   -7959.9579   -7886.8617    394.05746    28420.999    2.8861548 
    3060    662.60142    -7960.564   -7886.6498    467.62067    28416.938     2.902794 
    3070     648.9221   -7958.7846   -7886.3964    946.06432    28414.337     2.920536 
    3080    654.53274   -7959.1095   -7886.0954    1144.8711    28414.473    2.9366534 
    3090    672.00377   -7960.7105   -7885.7474    1054.6316    28418.016    2.9526427 
    3100    678.16046   -7961.0353   -7885.3855    993.17525     28424.84    2.9698427 
    3110    677.62413   -7960.6217   -7885.0317    953.64116    28434.823     2.986835 
    3120    684.90325   -7961.0922   -7884.6902    856.06274    28447.901    3.0019289 
    3130    691.56319   -7961.5127   -7884.3678    633.15957    28463.827    3.0168352 
    3140    695.38311   -7961.6539   -7884.0829    353.92625    28481.994    3.0351821 
    3150    680.87545   -7959.7936   -7883.8409    381.14889    28501.715    3.0590497 
    3160    659.18186   -7957.1476   -7883.6148    434.35832    28523.033    3.0858592 
    3170    672.48706   -7958.3873   -7883.3704    69.378306    28546.002    3.1113774 
    3180    683.19726    -7959.316   -7883.1043   -163.90051    28569.711    3.1356483 
    3190    672.24794   -7957.8382   -7882.8479   -77.767519    28593.499     3.158564 
    3200    665.61817   -7956.8431   -7882.5924    37.154357    28617.573    3.1781434 
    3210    679.30914   -7958.0997   -7882.3218   -183.35453    28642.167    3.1941762 
    3220    688.20188    -7958.817    -7882.047   -250.53636    28666.778      3.20857 
    3230    697.72882   -7959.6351   -7881.8024   -277.56762     28691.14    3.2238766 
    3240    699.42232   -7959.6248   -7881.6032   -232.24911    28715.181    3.2419798 
    3250    691.41154   -7958.5869   -7881.4589   -172.64288    28739.006    3.2614044 
    3260    687.19896   -7958.0131    -7881.355   -224.76556    28762.771    3.2789766 
    3270    691.93477   -7958.4635   -7881.2771   -480.95022    28786.276    3.2942197 
    3280    703.23016    -7959.685   -7881.2387   -827.54742    28808.736    3.3091551 
    3290    690.29578    -7958.254   -7881.2504   -868.47721    28829.164    3.3263366 
    3300    673.97733   -7956.4815   -7881.2983   -596.00106    28847.388    3.3452659 
    3310    674.39678   -7956.5785   -7881.3486   -420.48826    28864.075    3.3638522 
    3320    683.00922   -7957.5932   -7881.4025    -323.8507     28879.75    3.3817281 
    3330    676.34971   -7956.9167   -7881.4689   -246.78324    28894.723    3.4007614 
    3340    670.48615   -7956.3367   -7881.5429   -403.73525    28909.163    3.4206025 
    3350    662.98928   -7955.5623   -7881.6049   -546.52462    28922.644    3.4377507 
    3360    655.19665   -7954.7284   -7881.6402   -632.06193    28934.684    3.4492002 
    3370    657.41567   -7954.9733   -7881.6375   -769.31257     28944.97     3.454947 
    3380    673.73132   -7956.7594   -7881.6036   -878.87308    28953.049    3.4576453 
    3390    685.21703   -7958.0033   -7881.5663    -717.5631    28958.597    3.4600255 
    3400    679.57758   -7957.3538   -7881.5459   -395.39901     28962.04    3.4628275 
    3410    681.80422   -7957.5981   -7881.5418   -217.28203    28964.275    3.4661991 
    3420    686.26482   -7958.1071   -7881.5532   -303.98445    28965.782    3.4720927 
    3430    679.89789   -7957.4281   -7881.5844   -354.55524     28966.39    3.4808198 
    3440    680.34555   -7957.5308   -7881.6372   -461.58554    28965.881    3.4891988 
    3450    681.84495   -7957.7655   -7881.7046   -637.08605      28963.9    3.4965919 
    3460    691.16354   -7958.8991   -7881.7987   -898.07406    28959.842    3.5041908 
    3470    694.23928   -7959.3758   -7881.9323   -1182.8949    28952.869     3.512145 
    3480    685.21045   -7958.5446   -7882.1083    -1287.155    28942.106    3.5194457 
    3490    679.56873     -7958.12   -7882.3131   -1228.0169    28927.158    3.5249106 
    3500    670.25962   -7957.2996   -7882.5311   -1191.6895    28908.099    3.5283343 
    3510    667.42246    -7957.199    -7882.747    -1285.223    28884.953    3.5308568 
    3520    675.78232   -7958.3452   -7882.9607   -1435.7783    28857.415    3.5345263 
    3530    685.15171   -7959.6219   -7883.1922    -1550.221    28825.007    3.5404444 
    3540    681.86275   -7959.5158    -7883.453   -1452.3903    28787.384    3.5478987 
    3550    671.57483    -7958.645   -7883.7298   -1282.9576    28744.782    3.5550563 
    3560    665.44081   -7958.2407   -7884.0098   -1105.4514    28697.698    3.5606233 
    3570    658.23011   -7957.6944   -7884.2678   -806.57082    28646.717    3.5638963 
    3580     659.0497   -7958.0009   -7884.4829    -376.6955    28592.829    3.5650269 
    3590     671.5649   -7959.5771    -7884.663   -197.68739    28537.278    3.5660945 
    3600    681.67287   -7960.8843   -7884.8427    4.6410315    28480.773    3.5707541 
    3610    670.62042   -7959.8321   -7885.0234    361.83354    28424.058    3.5828034 
    3620    660.22413   -7958.8367   -7885.1877    501.15029    28368.173    3.6009436 
    3630    661.39498   -7959.0977   -7885.3181    407.37895    28313.599    3.6198693 
    3640    681.80245   -7961.4824   -7885.4263    253.72418    28260.185    3.6351183 
    3650    704.06588   -7964.0971   -7885.5575    356.98614    28207.624    3.6486948 
    3660    709.20004   -7964.8567   -7885.7444     777.2483    28156.305    3.6659674 
    3670    703.34386   -7964.4707   -7886.0116    1197.5853    28107.423     3.690485 
    3680    683.41555   -7962.5752   -7886.3392    1619.6511    28062.261    3.7200382 
    3690    669.08838   -7961.3242   -7886.6864    1745.0039    28021.958    3.7475025 
    3700    656.46545   -7960.2523   -7887.0226    1677.8148    27986.877     3.769889 
    3710     645.7076    -7959.345   -7887.3154    1835.9818    27956.927    3.7896324 
    3720    654.33987   -7960.5533   -7887.5607    1961.9537     27932.44    3.8085578 
    3730    657.80957   -7961.1466   -7887.7669    2066.6925     27913.76    3.8261495 
    3740    668.55186   -7962.5379   -7887.9599    2142.9104    27901.136    3.8410514 
    3750    667.88255   -7962.6611   -7888.1578    2227.0047    27894.764    3.8557365 
    3760    654.79451    -7961.398   -7888.3547    2317.6673    27894.866    3.8711102 
    3770    651.14879   -7961.1612   -7888.5246    2365.1908     27901.67    3.8846074 
    3780    651.25193   -7961.3074   -7888.6593    2333.6342    27915.281    3.8939474 
    3790    650.20157    -7961.285    -7888.754    2171.0048    27935.616    3.8976218 
    3800    661.00461   -7962.5425   -7888.8065    1841.5885    27962.201    3.8955046 
    3810    675.32255   -7964.1578   -7888.8246     1464.124     27994.09    3.8912759 
    3820    677.08101   -7964.3565   -7888.8271    1180.0435     28030.24    3.8907026 
    3830    676.36826   -7964.2775   -7888.8276    886.90731     28069.78    3.8967932 
    3840    659.76451   -7962.4159   -7888.8182    699.26913    28111.851    3.9087038 
    3850     631.9973   -7959.2642    -7888.764    717.70885    28155.923    3.9224321 
    3860    624.17081   -7958.2424   -7888.6152    673.50193    28201.924    3.9338327 
    3870    627.76497   -7958.3585   -7888.3304    592.90868    28249.705    3.9415394 
    3880    639.19264   -7959.1947   -7887.8918    352.95445    28298.974    3.9467165 
    3890    650.21256   -7959.8255   -7887.2933    90.022478    28349.002     3.952868 
    3900    655.29864   -7959.6717   -7886.5721   -30.235225    28399.007    3.9640487 
    3910    661.91295   -7959.6132   -7885.7758   -206.19007    28448.539    3.9814368 
    3920     672.6221   -7959.9967   -7884.9647   -407.83572     28497.03    4.0026974 
    3930    683.52902   -7960.4623   -7884.2136    -544.1752    28543.873    4.0264885 
    3940    687.27716   -7960.2471   -7883.5803   -663.84395    28588.614    4.0522203 
    3950    681.82264   -7959.1409   -7883.0825   -713.18486    28630.869    4.0778753 
    3960    667.59774   -7957.1695    -7882.698   -581.47567    28670.509    4.1018464 
    3970    660.37869   -7956.0535   -7882.3873   -409.41397    28707.906    4.1225278 
    3980    658.08563   -7955.5258   -7882.1153   -249.84685    28743.577    4.1409279 
    3990    655.12762   -7954.9433   -7881.8629   -51.477214    28778.022     4.160552 
    4000      658.629   -7955.0854   -7881.6143   -20.978684    28811.781    4.1833333 
    4010    671.39945   -7956.2532   -7881.3576   -319.21914    28844.917    4.2086342 
    4020     694.4491   -7958.5748   -7881.1079     -762.792    28876.531    4.2346853 
    4030    695.35415   -7958.4663   -7880.8985   -977.98716    28905.378    4.2600982 
    4040    693.85057   -7958.1483   -7880.7482   -1130.1356    28930.763    4.2840161 
    4050    700.38152   -7958.7812   -7880.6526   -1203.5756    28952.268    4.3079894 
    4060     698.1077   -7958.4911   -7880.6161   -1310.6408    28969.662    4.3335897 
    4070    678.77484   -7956.3406   -7880.6223   -1236.4742    28982.765    4.3592075 
    4080    669.37896   -7955.3156   -7880.6454    -1093.281    28991.808    4.3824187 
    4090    669.85702   -7955.3916    -7880.668   -906.90847    28997.318    4.4043151 
    4100    667.10916    -7955.106    -7880.689    -828.4791    28999.898    4.4272119 
    4110    655.85467   -7953.8548   -7880.6932   -831.25748    28999.856    4.4515278 
    4120    654.14282   -7953.6286   -7880.6579   -951.64441    28997.214    4.4771643 
    4130    656.36047   -7953.7849   -7880.5669   -908.99514    28991.736    4.5044213 
    4140    668.76704   -7955.0277   -7880.4257   -765.95008    28983.578    4.5316653 
    4150    680.17244   -7956.1303   -7880.2561   -635.64669    28973.215    4.5579422 
    4160     668.1118    -7954.602   -7880.0732   -620.46814    28961.084    4.5851079 
    4170    663.89822   -7953.9299    -7879.871   -870.18681    28947.223    4.6134833 
    4180    669.04814   -7954.2719   -7879.6386   -1101.5385    28930.968    4.6408192 
    4190    666.21976   -7953.6948   -7879.3769   -926.29758     28911.79     4.664252 
    4200    669.24851   -7953.7395   -7879.0838   -732.04317    28890.142     4.682145 
    4210    679.62258   -7954.5729   -7878.7599   -682.06715    28866.658    4.6957439 
    4220    687.80911   -7955.1515   -7878.4253   -667.20975    28841.547     4.708391 
    4230    686.97511   -7954.7308   -7878.0976   -404.40113    28814.983    4.7216672 
    4240    682.10028   -7953.8672   -7877.7779   -87.434005    28787.733    4.7335436 
    4250    687.33897   -7954.1335   -7877.4598    187.94313    28760.742    4.7398823 
    4260    689.11826   -7954.0174   -7877.1452    493.36142    28734.862     4.740372 
    4270    685.88454   -7953.3516   -7876.8402    678.54795    28710.946    4.7383458 
    4280    694.02007   -7953.9663   -7876.5473    693.07112    28689.497    4.7358006 
    4290    698.29692   -7954.1701    -7876.274    736.12849    28670.549    4.7332563 
    4300    701.96995   -7954.3426   -7876.0368    835.34666    28654.193     4.731817 
    4310     703.7124   -7954.3468   -7875.8466    841.08605    28640.618     4.734056 
    4320    708.15373   -7954.7085   -7875.7129    751.38201    28629.803    4.7411657 
    4330    719.22262   -7955.8873    -7875.657    516.14556    28621.402     4.752797 
    4340    716.61897   -7955.6402   -7875.7003    301.97116    28614.694    4.7689313 
    4350    714.02089   -7955.5114   -7875.8613    135.49669    28609.014    4.7879774 
    4360    701.78586   -7954.4289   -7876.1437    -22.78153    28603.852    4.8081739 
    4370    676.32794   -7951.9716   -7876.5262   -142.41813    28598.723    4.8276694 
    4380    659.73114   -7950.5597   -7876.9657   -168.34626    28593.273    4.8432715 
    4390    653.85922   -7950.3703   -7877.4313   -115.94024    28587.414    4.8521031 
    4400    662.17984   -7951.7842   -7877.9171   -74.855386    28581.271    4.8519196 
    4410    674.01289   -7953.6254   -7878.4382    39.069102    28575.006    4.8442786 
    4420    678.30806   -7954.6739   -7879.0076    237.75118    28568.958    4.8342914 
    4430    679.91046   -7955.4639   -7879.6189    369.44788    28563.679     4.827172 
    4440    682.89617   -7956.4369   -7880.2588    404.12746    28559.557    4.8261941 
    4450    685.97873   -7957.4367   -7880.9147    437.40312    28556.707    4.8307436 
    4460    679.10713   -7957.3152   -7881.5598    507.54661    28555.229     4.838945 
    4470    673.32489    -7957.268   -7882.1576    462.24844    28555.272    4.8494264 
    4480    666.32315   -7957.0134   -7882.6841    456.32481     28556.73    4.8597529 
    4490    654.73905   -7956.1497   -7883.1126    615.05664    28559.603    4.8645946 
    4500     657.7263   -7956.8157   -7883.4453     821.2423    28564.322    4.8626523 
    4510    653.63965   -7956.6082   -7883.6937    1076.6691    28571.521     4.859436 
    4520    655.18095   -7956.9567   -7883.8703    959.25714    28581.851    4.8585173 
    4530    669.22757   -7958.6459   -7883.9926    398.88774    28594.908    4.8598095 
    4540    672.73965   -7959.1286   -7884.0835   -83.808282     28609.13    4.8636481 
    4550    671.65735   -7959.0812   -7884.1568   -254.05545    28623.121    4.8705484 
    4560    673.96964   -7959.3992   -7884.2169   -288.44505    28636.295    4.8793676 
    4570    667.57705   -7958.7324   -7884.2632   -155.73203    28648.585    4.8865673 
    4580    664.77113   -7958.4465   -7884.2903   -155.75673    28660.306    4.8888051 
    4590    664.38292   -7958.4058   -7884.2929    -279.2735    28671.469    4.8879842 
    4600    662.50464   -7958.1767   -7884.2733   -315.59478    28681.759    4.8868809 
    4610    657.76837   -7957.6006   -7884.2255   -201.39801    28691.097    4.8868776 
    4620      656.106   -7957.3328   -7884.1432   -95.526253    28699.771    4.8869643 
    4630    655.25078   -7957.1121   -7884.0179   -4.7712327    28708.119    4.8839911 
    4640    663.61615   -7957.8801   -7883.8527   -121.52039    28716.342    4.8778478 
    4650    673.49471   -7958.7899   -7883.6605   -303.66251    28724.136    4.8717818 
    4660    663.74559    -7957.498   -7883.4562    -218.0869    28731.066    4.8690246 
    4670    651.35009   -7955.8887   -7883.2296   -140.18366    28737.278    4.8703297 
    4680     654.7469   -7955.9922   -7882.9542    9.0546407    28743.062    4.8740431 
    4690    672.10821   -7957.6052   -7882.6305     163.2697    28748.855    4.8799555 
    4700    675.74551   -7957.6632   -7882.2827    326.60619    28755.134    4.8894648 
    4710    679.22236   -7957.7052   -7881.9369    182.80523    28762.308    4.9019609 
    4720    684.56552   -7957.9593    -7881.595   -166.10885    28769.964    4.9151695 
    4730    681.88144   -7957.3339    -7881.269   -287.11643     28777.16    4.9263026 
    4740    677.02723   -7956.4805   -7880.9571   -365.56469    28783.449     4.934662 
    4750    681.18163   -7956.6388    -7880.652   -421.58366    28788.592    4.9431317 
    4760    684.31656   -7956.6915    -7880.355   -314.40314    28792.488    4.9556131 
    4770    692.23676   -7957.2995   -7880.0795   -216.11812    28795.398    4.9723414 
    4780    689.78096   -7956.7812   -7879.8351    43.008671    28797.694    4.9903306 
    4790    688.38775   -7956.4145   -7879.6238    178.28553    28800.077    5.0063553 
    4800    687.13164   -7956.0871   -7879.4365    192.69964    28802.981    5.0189354 
    4810    683.32073   -7955.4951   -7879.2696    125.74519    28806.462    5.0277184 
    4820    688.62531    -7955.935   -7879.1178    -61.86583     28810.31    5.0331828 
    4830    693.30608    -7956.323   -7878.9837   -250.53674    28813.963    5.0383666 
    4840    698.36742   -7956.7852   -7878.8813   -262.30065    28816.892    5.0447286 
    4850    701.41499   -7957.0654   -7878.8215   -1.8829735    28819.099    5.0512388 
    4860    701.03245   -7957.0183    -7878.817    365.96662    28821.339    5.0573391 
    4870    700.87085   -7957.0657   -7878.8825    469.38754    28824.642    5.0627104 
    4880    693.31758    -7956.368   -7879.0274     403.8322    28829.367    5.0671108 
    4890    688.15601   -7956.0312   -7879.2664      285.863    28835.339    5.0696423 
    4900    682.21968    -7955.712   -7879.6093    170.69924    28842.231    5.0701001 
    4910    682.12915   -7956.1679   -7880.0753   -154.74411    28849.592    5.0704415 
    4920    679.20424   -7956.4393   -7880.6731   -501.57893    28856.486    5.0732065 
    4930    675.92142   -7956.7894   -7881.3894   -799.39548    28861.847    5.0783349 
    4940     668.5885   -7956.7573   -7882.1753   -1001.5381    28864.773    5.0861341 
    4950    670.69022   -7957.7878   -7882.9713   -1170.9367    28864.599    5.0974864 
    4960    673.69341    -7958.893   -7883.7415   -1164.6743    28860.837    5.1137041 
    4970    656.15258   -7957.6256   -7884.4308   -941.03801    28853.544    5.1352512 
    4980    652.49386   -7957.7928   -7885.0061   -963.59702    28843.239    5.1583698 
    4990    652.74082   -7958.2878   -7885.4736   -1015.6964    28829.936    5.1779808 
    5000    641.27758   -7957.3709   -7885.8354   -953.82107    28813.507    5.1923227 
Loop time of 1883.78 on 16 procs for 3000 steps with 864 atoms

Performance: 0.138 ns/day, 174.424 hours/ns, 1.593 timesteps/s
98.0% CPU use with 16 MPI tasks x 1 OpenMP threads

MPI task timing breakdown:
Section |  min time  |  avg time  |  max time  |%varavg| %total
---------------------------------------------------------------
Pair    | 1044.3     | 1539.6     | 1875.3     | 722.8 | 81.73
Bond    | 0.00024128 | 0.00063662 | 0.001632   |   0.0 |  0.00
Neigh   | 0.033506   | 0.036606   | 0.04384    |   1.4 |  0.00
Comm    | 3.0217     | 311.72     | 814.58     |1648.1 | 16.55
Output  | 1.1857     | 1.1907     | 1.2625     |   1.7 |  0.06
Modify  | 4.2097     | 31.225     | 63.512     | 426.1 |  1.66
Other   |            | 0.01457    |            |       |  0.00

Nlocal:        54.0000 ave          59 max          50 min
Histogram: 2 1 4 2 1 1 0 1 3 1
Nghost:        409.375 ave         441 max         377 min
Histogram: 1 1 3 3 1 0 1 3 2 1
Neighs:         0.00000 ave           0 max           0 min
Histogram: 16 0 0 0 0 0 0 0 0 0
FullNghs:      1573.50 ave        1790 max        1370 min
Histogram: 1 2 1 3 3 1 0 1 1 3

Total # of neighbors = 25176
Ave neighs/atom = 29.138889
Ave special neighs/atom = 0.0000000
Neighbor list builds = 300
Dangerous builds = 300
unfix   2

fix     3 all npt temp 675.0 675.0 $(100.0*dt) aniso 1.01325 1.01325 $(1000.0*dt)
fix     3 all npt temp 675.0 675.0 0.10000000000000000555 aniso 1.01325 1.01325 $(1000.0*dt)
fix     3 all npt temp 675.0 675.0 0.10000000000000000555 aniso 1.01325 1.01325 1
run     20000
Per MPI rank memory allocation (min/avg/max) = 8.897 | 8.899 | 8.900 Mbytes
Step Temp PotEng TotEng Press Volume c_msd[4] 
    5000    641.27758   -7957.3709   -7885.8354   -953.82107    28813.507    5.1923227 
    5010     639.5387    -7957.141   -7885.7995   -853.51603    28812.086    5.2036719 
    5020    643.09434   -7957.4268   -7885.6886   -693.25822    28808.066    5.2158676 
    5030    651.05589   -7958.1343    -7885.508   -840.84904    28801.821    5.2306891 
    5040    661.24306   -7959.0339   -7885.2713   -1193.2997    28792.921    5.2463162 
    5050    669.77719   -7959.7144   -7884.9997   -1415.4984    28780.377    5.2608579 
    5060    670.49323   -7959.5036   -7884.7091   -1478.0939    28763.505    5.2733719 
    5070    666.96801   -7958.8035   -7884.4022   -1269.1649    28742.147    5.2829163 
    5080    664.01305   -7958.1405   -7884.0689   -947.99666    28716.897    5.2895848 
    5090     656.1149   -7956.8884   -7883.6978   -611.74977    28688.737     5.294323 
    5100    650.00592   -7955.7874   -7883.2783   -421.64678    28658.655    5.2972173 
    5110    649.62487   -7955.2668   -7882.8002   -303.05436    28627.256    5.2978505 
    5120    655.98606   -7955.4435   -7882.2673   -149.52613    28594.954    5.2971257 
    5130    671.34416   -7956.5944    -7881.705   -119.37773    28562.151    5.2960084 
    5140    682.81084   -7957.3273   -7881.1588    17.677212    28529.013    5.2946633 
    5150    694.02804   -7958.0923   -7880.6724    383.70231    28496.002    5.2937994 
    5160    696.91563   -7958.0143   -7880.2723    917.43934    28464.222    5.2953431 
    5170    688.89321   -7956.8131    -7879.966    1286.0898    28435.166    5.2991837 
    5180    669.38152   -7954.4034   -7879.7329    1550.0405    28409.965    5.3034883 
    5190    660.09351   -7953.1625   -7879.5281    1745.0147     28389.43    5.3067032 
    5200       672.82   -7954.3914   -7879.3373     1685.847    28374.054     5.308424 
    5210    673.77033   -7954.3291    -7879.169    1712.3073    28363.765    5.3089699 
    5220    670.70116   -7953.8475   -7879.0298     1829.417    28358.626     5.308264 
    5230    674.18906   -7954.1168     -7878.91    1765.4585    28358.914    5.3075535 
    5240    682.44488   -7954.9387   -7878.8109    1481.6794    28364.434    5.3105193 
    5250    692.16353   -7955.9545   -7878.7427    1141.6344    28374.411    5.3211663 
    5260    696.29555   -7956.3901   -7878.7173    849.81088    28387.864    5.3416976 
    5270    692.93204   -7956.0373   -7878.7397    712.39014    28403.959    5.3690737 
    5280    690.93093   -7955.8779   -7878.8035    685.38566     28422.28     5.397515 
    5290    681.45315   -7954.9128   -7878.8957    833.62908    28442.803    5.4225018 
    5300    678.52721   -7954.6929   -7879.0022    753.13612    28465.847    5.4405883 
    5310    681.41467   -7955.1244   -7879.1116    549.69686    28491.249    5.4525955 
    5320    679.02391   -7954.9753   -7879.2292     480.9626     28518.49    5.4626223 
    5330    674.47906   -7954.5919   -7879.3527    479.08509    28547.324    5.4746562 
    5340    676.72947   -7954.9684   -7879.4782    508.08102     28577.76    5.4912441 
    5350    673.97166   -7954.7899   -7879.6073    598.77722    28609.909    5.5134486 
    5360    664.57583   -7953.8646   -7879.7302    593.16912    28644.003    5.5399573 
    5370    669.55134   -7954.5237   -7879.8343      385.967    28680.007    5.5660003 
    5380    679.67284   -7955.7384   -7879.9199    38.256188    28717.323    5.5876588 
    5390     682.8569   -7956.1804   -7880.0066   -308.10594    28754.897    5.6054742 
    5400    677.21758   -7955.6518   -7880.1071   -426.36159    28791.722    5.6229542 
    5410        674.2   -7955.4259   -7880.2179   -518.88462    28827.359    5.6418403 
    5420    672.92216   -7955.3968   -7880.3313   -517.57336    28861.538    5.6608833 
    5430     670.7541   -7955.2712   -7880.4475   -435.50039    28894.223    5.6789569 
    5440    666.96158   -7954.9643   -7880.5637   -302.98851    28925.657    5.6968766 
    5450    677.55829   -7956.2668   -7880.6841   -460.04876    28956.132    5.7157033 
    5460    686.84301   -7957.4455   -7880.8271   -652.48306    28985.234    5.7353699 
    5470    676.75362   -7956.5044   -7881.0115   -624.81238    29012.428     5.754556 
    5480    670.57991   -7956.0362    -7881.232   -668.05333    29037.684    5.7712649 
    5490    671.47656   -7956.3876   -7881.4834   -829.20786     29060.86    5.7842394 
    5500    658.40982   -7955.2058   -7881.7592   -1050.1224    29081.455    5.7946444 
    5510    654.19978   -7955.0257   -7882.0487   -1246.2613    29098.788    5.8060714 
    5520    653.52908   -7955.2474   -7882.3453   -1316.9291    29112.264    5.8205061 
    5530    647.92547   -7954.9138   -7882.6368   -1373.5891    29121.616    5.8353315 
    5540    655.51714   -7956.0473   -7882.9234   -1730.6232    29126.535    5.8474853 
    5550    657.58887   -7956.5679   -7883.2128    -1926.668     29126.05    5.8569881 
    5560    652.35936   -7956.2803   -7883.5086   -1853.1377    29119.567    5.8642456 
    5570    643.92155   -7955.6217   -7883.7913   -1603.1236    29107.293    5.8687189 
    5580    640.64697   -7955.5023   -7884.0371   -1470.9664    29089.938      5.87065 
    5590    640.18926   -7955.6471    -7884.233   -1467.1133    29067.932     5.871848 
    5600    639.73069   -7955.7329     -7884.37   -1377.9349     29041.38    5.8718621 
    5610    646.85765    -7956.606   -7884.4481   -1276.6479    29010.558    5.8686765 
    5620    648.59428   -7956.8146   -7884.4629   -781.85891    28975.971    5.8626824 
    5630    653.48685    -7957.302   -7884.4046      -220.91    28939.101    5.8554993 
    5640    661.65242   -7958.0822   -7884.2739    107.19213    28901.655    5.8488678 
    5650    673.55918   -7959.2293   -7884.0928    122.14908    28864.658    5.8441867 
    5660    675.19867   -7959.2054    -7883.886    12.799251    28828.228    5.8405632 
    5670    666.54484    -7958.011    -7883.657    86.447002    28792.127    5.8349707 
    5680    669.42333    -7958.063   -7883.3878    77.123995      28756.5    5.8262157 
    5690    672.52502   -7958.0985   -7883.0774    149.49856    28721.404    5.8160334 
    5700    679.72492   -7958.5656   -7882.7412    131.04701    28686.999    5.8059726 
    5710    682.40632   -7958.5171   -7882.3936    191.22594    28653.307    5.7977233 
    5720    665.16548   -7956.2398   -7882.0396    474.80648    28620.542    5.7925661 
    5730    659.28789   -7955.1963   -7881.6517     739.1455    28589.489    5.7891212 
    5740     682.6814   -7957.3723   -7881.2181    790.10985    28560.875    5.7856235 
    5750    692.27143   -7957.9911   -7880.7672      990.373    28534.945    5.7814543 
    5760    695.33751   -7957.9085   -7880.3426    1105.1825    28512.196    5.7755303 
    5770    700.80985   -7958.1394    -7879.963    1149.2395     28492.95    5.7686996 
    5780    702.42733   -7957.9939   -7879.6371    1224.3953    28477.332    5.7629919 
    5790    712.38906   -7958.8501    -7879.382    1253.3934    28465.497     5.760992 
    5800    706.32749   -7957.9978   -7879.2059    1425.2156    28457.547    5.7644979 
    5810    708.41802   -7958.1362   -7879.1111    1557.0097    28453.921    5.7715323 
    5820    710.19326   -7958.3217   -7879.0986    1626.1025    28454.982    5.7808835 
    5830    689.38656   -7956.0669   -7879.1648    1710.5114    28460.931     5.793418 
    5840    683.32232    -7955.502   -7879.2763    1547.8759    28471.926     5.810979 
    5850     695.0857   -7956.9616   -7879.4237     1214.223    28487.467    5.8321166 
    5860    688.96134   -7956.4764   -7879.6217    1123.1244     28506.68    5.8520998 
    5870    685.72706   -7956.3622   -7879.8683    989.41905    28529.177    5.8709771 
    5880    693.44671   -7957.5213   -7880.1663    818.96828    28554.541    5.8922361 
    5890     694.7869   -7958.0373   -7880.5328     745.2661     28582.29    5.9192559 
    5900     686.6098   -7957.5673    -7880.975     694.2847    28612.179    5.9530638 
    5910    669.01612    -7956.101   -7881.4713    636.14218    28644.049    5.9906807 
    5920    655.86199   -7955.1392   -7881.9768    322.96206    28677.617    6.0270445 
    5930    653.29415   -7955.3301   -7882.4542   -46.350129    28711.983    6.0587188 
    5940    659.96874   -7956.5182   -7882.8976   -362.65546    28746.008    6.0838184 
    5950    660.41047   -7956.9802   -7883.3105   -649.38027    28778.708    6.1030327 
    5960    659.46887   -7957.2563   -7883.6916   -957.74321    28809.185    6.1176747 
    5970    668.01366   -7958.5703   -7884.0524   -1146.3411    28836.535    6.1296902 
    5980    668.16479   -7958.9395   -7884.4047   -1168.5851      28860.2    6.1419977 
    5990    661.03376   -7958.4844    -7884.745   -1255.8545    28880.052    6.1556842 
    6000    653.61059   -7957.9648   -7885.0536   -1329.9123    28895.879    6.1700365 
    6010    648.25914   -7957.6337   -7885.3194   -1413.8024    28907.443    6.1833271 
    6020    640.67433   -7956.9943   -7885.5261    -1241.092    28914.611    6.1924274 
    6030     648.6422   -7958.0279   -7885.6709   -925.58619    28917.931     6.197167 
    6040    652.53256   -7958.5504   -7885.7595   -760.36208    28918.309    6.2006137 
    6050    652.66626   -7958.6044   -7885.7985   -742.17058    28916.293    6.2041184 
    6060    660.74915   -7959.5021   -7885.7945   -712.68667    28912.007    6.2077251 
    6070    662.10157   -7959.6141   -7885.7556   -452.94544    28905.632    6.2109654 
    6080    647.57874   -7957.9133   -7885.6749   -123.23786    28897.952    6.2127115 
    6090    650.35356   -7958.0796   -7885.5317     1.633839     28889.91    6.2111807 
    6100    655.50066   -7958.4277   -7885.3056    150.13478     28881.97    6.2088998 
    6110    648.92174   -7957.3743   -7884.9861    378.82818    28874.602    6.2090367 
    6120    651.73064   -7957.2396   -7884.5381    478.90939    28868.453     6.211116 
    6130    665.95877   -7958.2082   -7883.9195    425.22308    28863.797    6.2129771 
    6140    682.14235   -7959.2175   -7883.1235    402.47812    28860.514    6.2128928 
    6150    693.33423   -7959.5425      -7882.2    377.47802    28858.501    6.2095267 
    6160    696.71429   -7958.9579   -7881.2384    218.99728    28857.642      6.20297 
    6170    698.11121   -7958.2094    -7880.334     42.99441    28857.468    6.1957492 
    6180    699.79337   -7957.6214   -7879.5584   -58.520293    28857.447    6.1888435 
    6190    702.04657   -7957.2586   -7878.9442    -17.94032    28857.298    6.1829205 
    6200    700.65154   -7956.6515   -7878.4928    85.566352    28857.128    6.1798169 
    6210     696.4397   -7955.8656   -7878.1768   -19.984199    28857.172    6.1799274 
    6220    704.00643   -7956.5036   -7877.9706   -363.96976    28857.072    6.1826253 
    6230    703.44364   -7956.3289   -7877.8587   -559.35283    28855.893     6.188337 
    6240    694.11351   -7955.2566   -7877.8272   -470.70556    28853.081    6.1957258 
    6250    689.72355   -7954.7845   -7877.8448   -283.94659    28848.868    6.1996365 
    6260    691.33068   -7955.0155   -7877.8966   -142.31215    28843.799    6.1980807 
    6270    686.63053   -7954.5715   -7877.9768    91.069339     28838.38    6.1937129 
    6280    681.80035   -7954.1337   -7878.0778    283.07338    28833.284    6.1895707 
    6290    683.91919   -7954.4815   -7878.1893    464.96014    28829.135    6.1878071 
    6300    696.42258   -7956.0097   -7878.3227    383.27039    28826.385    6.1909869 
    6310    699.55455   -7956.5362   -7878.4999    132.75849     28824.79    6.1997234 
    6320    684.46925    -7955.073   -7878.7194    30.677991    28823.676    6.2109106 
    6330    665.15851    -7953.143   -7878.9435    50.289523    28822.711    6.2226194 
    6340    666.22853   -7953.4687   -7879.1499    -78.90482    28821.857    6.2354838 
    6350    670.58665   -7954.1412   -7879.3362   -165.62138    28820.787    6.2498333 
    6360    674.58452   -7954.7663   -7879.5154   -84.594229     28819.27    6.2619113 
    6370    678.21062    -7955.346   -7879.6906    63.665319    28817.526    6.2664594 
    6380    681.61035   -7955.9063   -7879.8716    235.88147    28816.007    6.2624898 
    6390    688.03198   -7956.8257   -7880.0747    385.65499     28815.23    6.2559736 
    6400    690.41151   -7957.3337   -7880.3173    516.05186    28815.644    6.2537846 
    6410    676.18736   -7956.0224   -7880.5927    716.46069    28817.672    6.2586364 
    6420    659.55751   -7954.4422   -7880.8676    795.25406    28821.869    6.2694051 
    6430    660.18328   -7954.7564   -7881.1119    624.32035    28828.421    6.2823387 
    6440    682.99064   -7957.5325   -7881.3439    318.62005    28836.798    6.2950233 
    6450     686.5668   -7958.1865    -7881.599    288.46873    28846.158    6.3079609 
    6460    681.37999   -7957.9057   -7881.8968    376.23066    28856.367    6.3208571 
    6470    674.66694   -7957.4811    -7882.221    275.60876    28867.601    6.3322123 
    6480     672.9384     -7957.63   -7882.5627    35.441565    28879.546    6.3407459 
    6490    665.54008   -7957.1513   -7882.9093   -102.90065    28891.526    6.3460147 
    6500    664.11593   -7957.3312   -7883.2481   -156.94659    28903.093    6.3471908 
    6510    672.24582   -7958.5744   -7883.5844   -161.71787    28914.072    6.3452468 
    6520    667.46412   -7958.3834   -7883.9268   -56.961271    28924.469    6.3432507 
    6530    658.80821   -7957.7559   -7884.2648    109.38236    28934.603    6.3447672 
    6540      655.747   -7957.7357   -7884.5861    281.78848    28944.994     6.352277 
    6550    646.61955   -7957.0085   -7884.8771    292.35924    28956.115    6.3667791 
    6560    638.46869     -7956.34   -7885.1178    229.79358    28968.034    6.3865263 
    6570    640.73809   -7956.7755   -7885.3002    24.632725    28980.517     6.408902 
    6580    645.96038   -7957.4829    -7885.425   -224.30051    28992.943    6.4319971 
    6590    655.04612    -7958.574   -7885.5027   -447.46622    29004.553    6.4532337 
    6600    659.29477   -7959.0874   -7885.5421   -604.02931    29014.681    6.4716708 
    6610    659.61873   -7959.1316   -7885.5502   -688.96404    29022.855    6.4883643 
    6620    658.47678   -7958.9778   -7885.5237   -702.89242    29028.825    6.5057085 
    6630    658.32032   -7958.8892   -7885.4525   -699.50799    29032.546    6.5260712 
    6640    665.43956   -7959.5551   -7885.3243   -790.40764    29034.018    6.5494111 
    6650    678.31349   -7960.8065   -7885.1396   -851.96073    29033.024    6.5734019 
    6660    671.47101    -7959.807   -7884.9034   -688.17086    29029.454    6.5956603 
    6670    668.74187   -7959.2103   -7884.6111   -696.14503    29023.713    6.6132183 
    6680    669.35712   -7958.9113   -7884.2436   -864.93984    29015.825    6.6252278 
    6690    666.20333    -7958.118    -7883.802   -1049.4029    29005.328    6.6338624 
    6700    666.20938   -7957.6051   -7883.2885   -1263.2043    28991.661    6.6424356 
    6710    677.18817   -7958.2569   -7882.7155   -1467.8117    28974.208    6.6528344 
    6720    687.78612   -7958.8453   -7882.1218   -1559.0998    28952.414    6.6642442 
    6730    693.20506   -7958.8814   -7881.5534   -1515.8437    28926.056    6.6740563 
    6740    701.02685    -7959.243   -7881.0424   -1272.2191    28895.361    6.6796975 
    6750    704.29481   -7959.1706   -7880.6055   -898.87392    28861.136    6.6810173 
    6760    707.99009   -7959.2301   -7880.2528   -573.80488    28824.547    6.6798968 
    6770    714.95716   -7959.7411   -7879.9866   -190.50077    28786.678    6.6794743 
    6780    710.15023   -7959.0228   -7879.8045    329.86601    28748.761    6.6803776 
    6790    703.19028   -7958.1371   -7879.6952    615.98817    28712.298     6.681608 
    6800    704.38365   -7958.2275   -7879.6525    863.15248    28678.224    6.6838173 
    6810    701.53545   -7957.9272   -7879.6699    1190.8853    28647.301     6.690449 
    6820    697.62442    -7957.568    -7879.747    1337.2516    28620.405    6.7063111 
    6830     691.5359   -7957.0181   -7879.8763    1186.0617    28597.887    6.7299791 
    6840    690.37079   -7957.0646   -7880.0527    886.39165     28579.26    6.7531357 
    6850    684.41355   -7956.6151   -7880.2677    681.64417    28563.625    6.7703636 
    6860    677.48986    -7956.082    -7880.507    661.78438    28550.348    6.7817763 
    6870    676.39054   -7956.2103   -7880.7579    743.62457     28539.29    6.7900269 
    6880    672.69321   -7956.0571   -7881.0172    1110.3349    28530.735    6.7995939 
    6890    671.98548   -7956.2413   -7881.2803    1376.8625    28525.621    6.8151934 
    6900    684.31943   -7957.8959    -7881.559    1274.2789     28524.63     6.837131 
    6910    691.21612   -7958.9794   -7881.8732    1074.9055    28527.467    6.8623507 
    6920    695.59144   -7959.8308   -7882.2366    984.69537    28533.534     6.888498 
    6930    706.35586   -7961.4635   -7882.6685    998.35643    28542.498    6.9135148 
    6940    704.95019   -7961.8231   -7883.1848    1069.1085    28554.356    6.9363776 
    6950    688.20023   -7960.5357    -7883.766    1106.5966    28569.232    6.9567274 
    6960    664.08219   -7958.4227   -7884.3433    1280.5196    28587.269    6.9765784 
    6970    666.65907   -7959.2387   -7884.8719    1150.5456      28608.8    6.9988431 
    6980    678.80218   -7961.0736   -7885.3522    828.90281    28633.432    7.0238831 
    6990    671.86949   -7960.7371   -7885.7891    787.60927    28660.313    7.0513529 
    7000    662.02265   -7960.0185   -7886.1688    800.43378    28689.193    7.0800709 
    7010    665.73813   -7960.7437   -7886.4796    688.04107     28720.04    7.1077347 
    7020     679.2796   -7962.5116   -7886.7369    244.32183     28752.39    7.1345088 
    7030    683.24692   -7963.1795   -7886.9623   -2.3307977    28785.048    7.1634416 
    7040    685.62265   -7963.6558   -7887.1735   -161.88074      28817.2    7.1959945 
    7050    687.12875   -7964.0297   -7887.3795    -181.0102    28848.386    7.2305554 
    7060    682.86396   -7963.7563   -7887.5818   -59.338914     28878.54    7.2622356 
    7070    683.61677   -7964.0384   -7887.7799   -71.975599    28907.969    7.2876645 
    7080    682.58701   -7964.1174   -7887.9738   -168.98694    28936.664    7.3086683 
    7090    668.86587   -7962.7671   -7888.1541   -207.07553    28964.363    7.3270721 
    7100    657.95527   -7961.6971   -7888.3012   -203.01144     28990.95    7.3425012 
    7110     658.5593   -7961.8618   -7888.3985   -295.56261     29016.42    7.3559757 
    7120    667.66904   -7962.9347   -7888.4552   -599.56637    29040.452    7.3683314 
    7130    659.10868    -7962.004   -7888.4794   -786.24627    29062.237    7.3818917 
    7140    650.28327   -7961.0097   -7888.4696   -913.05107    29081.193    7.3971261 
    7150    650.47778   -7960.9723   -7888.4106   -1060.3056    29096.955    7.4130848 
    7160    650.85817   -7960.9095   -7888.3053   -1096.4234    29109.157    7.4306274 
    7170    645.10397   -7960.1161   -7888.1538    -995.3656    29117.754    7.4514061 
    7180    645.16652   -7959.9209   -7887.9516   -932.88249    29123.068    7.4732073 
    7190    649.07685   -7960.1006   -7887.6951    -976.4548    29125.334    7.4908232 
    7200     660.2262   -7961.0419   -7887.3927   -949.16615    29124.517    7.5027624 
    7210    669.67409   -7961.7678   -7887.0647   -745.36797    29120.811    7.5131312 
    7220    668.07947   -7961.2593    -7886.734   -487.69135    29114.875    7.5276737 
    7230    657.24503   -7959.7198   -7886.4031   -207.42869    29107.543    7.5492426 
    7240    654.38109   -7959.0558   -7886.0586   -101.85617    29099.651    7.5754415 
    7250    659.63817   -7959.2785   -7885.6949   -218.07296     29091.53    7.6028244 
    7260    653.55554   -7958.2263   -7885.3212   -409.21193    29082.853    7.6300756 
    7270    640.69103   -7956.4092   -7884.9391   -399.92255    29073.137    7.6559154 
    7280    644.26614   -7956.4058    -7884.537   -326.20227    29062.364    7.6795325 
    7290     654.8638   -7957.1696   -7884.1186   -162.90488    29050.784    7.7033064 
    7300    661.85586   -7957.5429   -7883.7119   -119.30194    29038.848     7.724927 
    7310    675.69645    -7958.717    -7883.342    -268.9205    29026.694    7.7385837 
    7320    686.57252   -7959.6194   -7883.0312    -361.6922    29013.948    7.7454815 
    7330    686.35126   -7959.3573   -7882.7938   -361.30746    29000.314    7.7494784 
    7340    690.06943   -7959.6055   -7882.6272   -296.31994    28985.796    7.7536523 
    7350    680.88398   -7958.4667   -7882.5131   -173.27376    28970.623    7.7618454 
    7360    670.09112   -7957.1822   -7882.4325    10.309183    28955.195     7.774469 
    7370    654.35718   -7955.3429   -7882.3484    346.98225    28940.104    7.7888333 
    7380    647.95215    -7954.512    -7882.232    612.00954    28926.327    7.8050916 
    7390    659.54828   -7955.6487   -7882.0751    555.75568    28914.576    7.8257412 
    7400    673.66549   -7957.0452   -7881.8968     401.9836    28904.696    7.8505038 
    7410    680.62444   -7957.6497    -7881.725    419.13469    28896.271    7.8762594 
    7420    685.41746   -7958.0363   -7881.5769    518.22663    28889.287    7.8999504 
    7430    685.90562   -7957.9725   -7881.4587    724.00462    28884.038    7.9214345 
    7440    680.25468   -7957.2517   -7881.3683     899.8637    28881.105    7.9431005 
    7450    683.93986   -7957.5968   -7881.3023     792.5881    28880.918    7.9679437 
    7460    686.62431   -7957.8534   -7881.2594    630.15271     28883.18    7.9969488 
    7470    687.13899   -7957.8988   -7881.2474    526.27254    28887.373    8.0285946 
    7480    686.25772   -7957.8167   -7881.2636    420.37647    28893.148    8.0623131 
    7490    688.25497   -7958.0848   -7881.3089    122.06651     28900.08    8.0991338 
    7500    692.56853   -7958.6443   -7881.3872   -67.274843    28907.326    8.1385866 
    7510    693.29208   -7958.8397   -7881.5019   -31.682962    28914.336    8.1808273 
    7520    689.88867   -7958.6184   -7881.6603    103.28141    28921.178    8.2244379 
    7530    677.40963   -7957.4166   -7881.8505    63.875346    28928.197    8.2660218 
    7540    675.59824   -7957.4171   -7882.0531   -169.38956    28935.272     8.302487 
    7550     680.6105   -7958.1857   -7882.2626   -318.02679    28941.748    8.3355221 
    7560    681.04437   -7958.4658   -7882.4943   -372.62794    28947.166    8.3685892 
    7570    685.14824   -7959.1881   -7882.7588   -215.08578    28951.421    8.4019682 
    7580     693.9739   -7960.4906   -7883.0768   -43.280041    28954.944    8.4335987 
    7590    695.68584   -7961.0768    -7883.472    10.603321    28958.254    8.4612946 
    7600    682.63453   -7960.0956   -7883.9467    136.30117    28961.577    8.4839522 
    7610    663.72438   -7958.4979   -7884.4584     170.9202    28965.257    8.5020224 
    7620    661.08022   -7958.7216   -7884.9771   -7.6355624    28969.342    8.5168618 
    7630    657.71207   -7958.8494   -7885.4806   -104.90199    28973.366    8.5308856 
    7640    659.06283    -7959.479   -7885.9595   -238.71696    28976.988    8.5445678 
    7650    661.33832     -7960.18   -7886.4068   -326.18266    28979.838    8.5579695 
    7660    660.37382   -7960.4818   -7886.8161    -337.8655    28981.664    8.5724437 
    7670    661.28423   -7960.9518   -7887.1845   -372.51978    28982.422    8.5899087 
    7680    656.69886   -7960.7585   -7887.5028   -337.53779    28982.044    8.6102402 
    7690    667.37196   -7962.2208   -7887.7744   -284.42692    28980.651    8.6291963 
    7700     679.9594   -7963.8749   -7888.0244   -353.31428    28978.369    8.6419564 
    7710    671.48567   -7963.1716   -7888.2663   -370.11142    28975.051    8.6494808 
    7720    657.16361   -7961.7959   -7888.4884   -257.05312    28970.681    8.6565229 
    7730    640.95531   -7960.1554   -7888.6559    -95.60354      28965.6    8.6670136 
    7740    635.89812   -7959.6812   -7888.7458   -42.125928    28960.277    8.6812746 
    7750    636.28246    -7959.725   -7888.7467   -153.78647    28954.842    8.6965373 
    7760    640.81958   -7960.1539   -7888.6696   -271.81929    28948.985    8.7104661 
    7770     643.4391   -7960.2986    -7888.522    -189.9721    28942.441    8.7208887 
    7780    654.98637    -7961.388   -7888.3233   -220.34673    28935.355    8.7242982 
    7790    670.79978   -7962.9299   -7888.1012   -287.41792    28927.664    8.7214349 
    7800     676.1977   -7963.3223   -7887.8914    -163.7998    28919.231    8.7183653 
    7810    660.56778   -7961.3883    -7887.701    130.86773    28910.459    8.7207053 
    7820    663.77672   -7961.5646   -7887.5193    124.44412    28902.096    8.7292477 
    7830    674.31366    -7962.563   -7887.3423    144.33576    28894.231    8.7419468 
    7840    673.26349   -7962.2913   -7887.1877    347.30056    28886.962    8.7559963 
    7850    667.46061   -7961.5149   -7887.0586    539.64812    28880.854    8.7673987 
    7860    662.78987   -7960.8757   -7886.9405    566.25596    28876.438    8.7747975 
    7870    663.02814   -7960.7853   -7886.8235    428.65604    28873.795     8.780027 
    7880    660.51136   -7960.3765   -7886.6954    215.39288    28872.502    8.7867847 
    7890    672.11358   -7961.5385   -7886.5632   -1.1233563    28871.879    8.7954997 
    7900    679.53715   -7962.2432   -7886.4398    36.680587    28871.337    8.8058374 
    7910    682.66371   -7962.4949   -7886.3427    200.64062    28870.968    8.8176917 
    7920    684.96191   -7962.6831   -7886.2746    190.39853    28871.166    8.8296463 
    7930    688.28464   -7963.0149   -7886.2357     113.9535    28871.939    8.8407585 
    7940    694.02019   -7963.6537   -7886.2347    8.8331662    28873.052    8.8514592 
    7950    679.43602   -7962.0592   -7886.2671    64.915174    28874.234    8.8620395 
    7960    665.20821   -7960.5114   -7886.3064    184.67947     28875.63    8.8703414 
    7970    669.62072   -7961.0269   -7886.3297    258.94788    28877.567    8.8751719 
    7980    669.50843   -7961.0238   -7886.3391    413.81565    28880.317    8.8791978 
    7990    662.83594    -7960.275   -7886.3346    374.95875    28884.276    8.8854864 
    8000     656.3657   -7959.5252   -7886.3067     136.9715    28889.292    8.8966359 
    8010    643.68145   -7958.0385   -7886.2349    69.703631    28894.751    8.9131033 
    8020    644.68128   -7958.0179   -7886.1027   -13.992008     28900.38    8.9333605 
    8030    648.83173   -7958.2782   -7885.9001   -101.57336    28905.923    8.9566585 
    8040    659.16423   -7959.1677   -7885.6369   -119.95281     28911.14    8.9823621 
    8050    665.89959   -7959.6083   -7885.3262   -75.359592    28915.983    9.0090966 
    8060    664.41077   -7959.1005   -7884.9845    139.34687    28920.613    9.0349759 
    8070    669.51551   -7959.3012   -7884.6157    317.35332    28925.639    9.0582443 
    8080     683.9338   -7960.5218    -7884.228    214.92067    28931.542    9.0793352 
    8090    691.64173   -7961.0014   -7883.8478    47.400932    28938.053    9.0997104 
    8100    693.93047   -7960.9125   -7883.5035    24.827368    28944.708    9.1193704 
    8110    688.57759   -7960.0154   -7883.2035    281.47873    28951.482    9.1390039 
    8120    683.63563   -7959.2028   -7882.9422    602.85182    28959.102    9.1592664 
    8130    685.38427   -7959.1628   -7882.7071    811.80426    28968.549    9.1813442 
    8140    685.81668   -7958.9975   -7882.4936    842.59385    28980.442     9.205809 
    8150    676.11991   -7957.7261   -7882.3039    844.83625    28994.905    9.2324574 
    8160    659.91212   -7955.7309   -7882.1167    725.30857      29011.9    9.2628999 
    8170    656.60492   -7955.1415   -7881.8963    465.62317    29031.072    9.2974253 
    8180    674.83251   -7956.9104   -7881.6318  -0.25754848    29051.577    9.3325501 
    8190    689.32423   -7958.2382    -7881.343   -456.56439    29072.016    9.3658232 
    8200    695.83936   -7958.6917   -7881.0697   -634.54776    29091.031     9.395394 
    8210     697.5508   -7958.6477   -7880.8348   -458.87796    29108.092    9.4212214 
    8220    697.69819    -7958.472   -7880.6428   -216.86004    29123.671    9.4470251 
    8230    705.07949   -7959.1444   -7880.4918   -211.18495    29138.448    9.4762272 
    8240    711.23047   -7959.7303   -7880.3915   -289.86722    29152.494    9.5080358 
    8250    711.25899   -7959.7074   -7880.3654   -322.08756    29165.586    9.5380435 
    8260     707.5892   -7959.3561   -7880.4235   -424.41566    29177.599    9.5606544 
    8270    712.63209   -7960.0756   -7880.5804   -590.62638    29188.217    9.5740776 
    8280    712.59461   -7960.3616   -7880.8706   -660.82812    29196.961    9.5835883 
    8290    699.79515   -7959.3877   -7881.3245    -667.3057    29203.606    9.5981485 
    8300     688.2719   -7958.7291   -7881.9513   -680.11593    29208.113     9.622816 
    8310    678.65178   -7958.4444   -7882.7398   -717.08482    29210.448    9.6545228 
    8320    662.42407   -7957.5248   -7883.6304   -737.70368    29210.523    9.6845894 
    8330     653.7786   -7957.4548   -7884.5248   -860.80266    29208.227     9.706564 
    8340    651.52828   -7958.0212   -7885.3422   -899.97602    29203.254    9.7212593 
    8350    654.58403   -7959.0571   -7886.0373   -758.48534    29195.505    9.7304993 
    8360     656.1414   -7959.7944   -7886.6008   -530.85188     29185.43    9.7352134 
    8370    654.76403   -7960.0801   -7887.0402    -502.4065    29173.667    9.7378009 
    8380    661.38934   -7961.1571   -7887.3781   -546.74148    29160.358    9.7415671 
    8390    662.88767   -7961.5821    -7887.636   -458.53217    29145.412    9.7504621 
    8400     656.6539    -7961.078   -7887.8273   -130.04748    29129.166    9.7666056 
    8410    649.71925   -7960.4285   -7887.9513    110.59393    29112.576     9.787893 
    8420    646.25018   -7960.0982    -7888.008    121.26178     29096.35    9.8096858 
    8430    649.93761   -7960.5044   -7888.0029    114.12421    29080.607    9.8275185 
    8440    656.06164   -7961.1325   -7887.9478   -25.714809    29065.258    9.8382512 
    8450     662.6658   -7961.7772   -7887.8558   -120.24763    29049.931    9.8430949 
    8460    666.41684   -7962.0786   -7887.7388   -174.35132    29034.324    9.8473822 
    8470     666.2662   -7961.9325   -7887.6095   -185.65799    29018.263    9.8551151 
[...]
   22890    671.48997   -7957.5973   -7882.6916     653.6897    28274.157    23.698514 
   22900    675.29345   -7958.7238   -7883.3938    543.08887    28266.619     23.72245 
   22910    678.28954   -7959.7036   -7884.0394    614.68731    28260.854    23.753337 
   22920    684.77915   -7961.0309   -7884.6428    628.33544    28256.944    23.780747 
   22930    665.95368   -7959.4764   -7885.1883    827.39064    28255.007    23.798292 
   22940    651.97523   -7958.3755   -7885.6466    891.07818    28255.487    23.805855 
   22950    653.68848   -7958.9374   -7886.0175    879.15958    28258.588    23.809308 
   22960    649.18547   -7958.7263   -7886.3087    956.95408    28264.292    23.816217 
   22970     651.3462   -7959.1896   -7886.5309    972.63775    28272.757    23.830839 
   22980    652.74781   -7959.5071   -7886.6921    780.72828    28283.971    23.854876 
   22990    659.56922   -7960.3786   -7886.8026    526.84171    28297.377    23.881428 
   23000    665.48158   -7961.1126   -7886.8772    469.29894    28312.271    23.902755 
   23010    667.05336   -7961.3409   -7886.9301    462.42923    28328.444    23.915517 
   23020    668.16388   -7961.5002   -7886.9655    307.74001    28345.814    23.922261 
   23030     662.0153   -7960.8261   -7886.9773    55.679838    28363.922     23.92261 
   23040    660.99834   -7960.6952   -7886.9598   -276.78282    28382.017    23.916851 
   23050    653.40897   -7959.7923   -7886.9035   -461.69557    28399.176    23.910539 
   23060    648.90484   -7959.1854   -7886.7991   -464.86928    28414.867    23.907637 
   23070    660.44105   -7960.3137   -7886.6405   -410.57528    28429.058    23.906916 
   23080    668.63682   -7961.0282   -7886.4407   -156.10442    28441.974    23.905845 
   23090    666.13369   -7960.5242    -7886.216   -3.3957213    28454.299    23.902974 
   23100    672.05825   -7960.9371    -7885.968   -224.48429     28466.42    23.897042 
   23110    669.96174   -7960.4331   -7885.6979    -220.6846    28477.854    23.889429 
   23120    662.73976   -7959.3403   -7885.4107   -84.620096     28488.58    23.884981 
   23130     659.2113   -7958.6304   -7885.0944   -64.230183    28498.948     23.88812 
   23140     647.5273    -7956.966   -7884.7333    99.016791     28509.11    23.898025 
   23150    654.19664   -7957.2914   -7884.3148    277.60256    28519.531    23.912802 
   23160    674.26846   -7959.0541   -7883.8384    329.22392    28530.701    23.934294 
   23170    682.17672   -7959.4471   -7883.3493    407.45543     28542.81     23.96443 
   23180    673.58134   -7958.0238   -7882.8848    530.40628    28556.097    24.001175 
   23190    673.51616   -7957.5783   -7882.4465    557.51615    28570.901     24.03838 
   23200    683.93807   -7958.3234   -7882.0291    452.41314    28587.296     24.07229 
   23210    696.96943   -7959.3998   -7881.6518    275.03196    28604.947    24.103019 
   23220    694.50153    -7958.812   -7881.3393    312.38652    28623.405    24.130334 
   23230     691.7482   -7958.2624   -7881.0968    304.78836    28642.714    24.154219 
   23240    698.44724   -7958.8236   -7880.9108    51.423178     28662.79    24.175765 
   23250    695.89426   -7958.4091    -7880.781   -54.638919    28682.975    24.200677 
   23260    694.77432   -7958.2142   -7880.7111    -117.8869    28702.887    24.232668 
   23270    677.57077   -7956.2641   -7880.6801   -145.56996    28722.352    24.273787 
   23280    663.63456   -7954.6839   -7880.6545    -366.2335    28741.218    24.321094 
   23290      677.874   -7956.2277   -7880.6099   -761.71987    28758.795    24.367064 
   23300    690.72271    -7957.617   -7880.5658   -968.55875    28773.977    24.408579 
   23310    690.85376   -7957.6235   -7880.5578   -813.54669    28786.205    24.446422 
   23320    686.76224   -7957.2028   -7880.5934   -649.99429    28795.862    24.481241 
   23330    679.69586   -7956.4812   -7880.6601   -562.76655    28803.449    24.514117 
   23340    668.86801   -7955.3458   -7880.7325   -426.36951    28809.271    24.543312 
   23350    670.09998   -7955.5458   -7880.7951   -328.15718    28813.734    24.565329 
   23360    675.26515   -7956.1755   -7880.8486   -237.94528    28817.176    24.582067 
   23370    678.35414   -7956.5725   -7880.9011   -332.73404     28819.83     24.60025 
   23380    686.53734   -7957.5517   -7880.9674   -644.39468    28821.374    24.622754 
   23390     681.7715   -7957.1113   -7881.0586   -750.58709     28820.99     24.64723 
   23400    675.41312   -7956.5223    -7881.179   -823.99431    28818.306    24.669517 
   23410    675.54306   -7956.6757   -7881.3179   -849.17608    28813.141    24.686142 
   23420    679.92248   -7957.3286   -7881.4822   -717.42015    28805.469    24.693822 
   23430     676.5365   -7957.1469   -7881.6782    -602.1915    28795.679    24.693927 
   23440    682.40157   -7958.0513   -7881.9284   -756.27118    28784.074    24.685682 
   23450    675.45593   -7957.6028   -7882.2546   -780.13627    28770.297    24.671269 
   23460     658.5408   -7956.1112     -7882.65   -481.46459    28754.372    24.657135 
   23470    664.12469   -7957.1917   -7883.1076    -289.9586     28737.12    24.646684 
   23480    676.25216    -7959.083   -7883.6461   -178.33276    28719.163     24.64107 
   23490    668.68316   -7958.8648   -7884.2722   -5.2800038    28700.884    24.640809 
   23500    651.64527   -7957.6184   -7884.9264    222.01167    28682.816    24.642452 
   23510    657.81475   -7958.9457   -7885.5655    276.51275    28665.587    24.639557 
   23520    666.08547   -7960.4793   -7886.1764    127.55122    28649.344    24.630228 
   23530    678.02755   -7962.4016   -7886.7666   -52.897975    28633.664    24.618185 
   23540    678.34273   -7963.0091   -7887.3389    25.579547    28618.086    24.609574 
   23550    662.08949     -7961.72    -7887.863    183.16647    28602.786    24.612326 
   23560    653.83327   -7961.2464   -7888.3103    64.548783    28588.126    24.633571 
   23570    647.96642    -7960.948   -7888.6664    47.371722    28573.864    24.668292 
   23580      655.283   -7962.0358    -7888.938    108.54216    28559.916    24.704909 
   23590    671.12021   -7964.0225    -7889.158     167.7187    28546.442    24.738172 
   23600    671.67202   -7964.2736   -7889.3476    325.81743    28533.654     24.76383 
   23610    674.87981   -7964.8059    -7889.522    486.63876    28521.977    24.780309 
   23620     679.2104   -7965.4515   -7889.6845    548.18375    28511.872    24.796787 
   23630    687.20221   -7966.5121   -7889.8536    363.78552    28503.466    24.821258 
   23640    685.17075   -7966.4753   -7890.0434    151.15408    28496.245    24.854259 
   23650    677.84251   -7965.8669   -7890.2526   -21.602737    28489.562    24.890489 
   23660    669.00316    -7965.085   -7890.4567   -57.283868    28482.934    24.925412 
   23670    672.68581   -7965.6806   -7890.6415   -130.19558    28476.186     24.95402 
   23680    678.46613   -7966.4997   -7890.8158   -132.23647    28469.126     24.97448 
   23690    670.47203   -7965.7788   -7890.9867     114.2342     28461.81     24.99062 
   23700    652.46382   -7963.9154   -7891.1321    445.76425    28454.949    25.008763 
   23710     647.0333   -7963.4058   -7891.2283    533.56629    28449.442    25.034053 
   23720    649.95611   -7963.7697   -7891.2662    433.09607    28445.541    25.069007 
   23730    648.88142   -7963.6305   -7891.2468    508.44079    28443.041    25.112566 
   23740     637.5394   -7962.2794    -7891.161    763.69952    28442.152    25.162044 
   23750    632.56113   -7961.5568   -7890.9937    851.14463    28443.525    25.214498 
   23760    642.71742   -7962.4276   -7890.7315    637.75236     28447.36    25.265587 
   23770    652.39202   -7963.1511   -7890.3757    489.79588    28453.101    25.306849 
   23780    661.91459   -7963.7821   -7889.9445    395.44033     28460.26    25.333109 
   23790    671.33536   -7964.3469   -7889.4584    359.36076    28468.532    25.347712 
   23800    676.22806   -7964.3752   -7888.9409    513.73835    28477.849    25.354471 
   23810    681.50373    -7964.439   -7888.4162    841.10021    28488.659    25.354606 
   23820    682.89268   -7964.0806   -7887.9029    1150.1929    28501.886    25.348901 
   23830      675.619   -7962.7854   -7887.4191    1175.7829    28518.358    25.341708 
   23840    657.60559   -7960.3175   -7886.9606    1054.0718    28538.174    25.335796 
   23850    653.39544   -7959.3909   -7886.5037    836.28669    28560.956    25.330204 
   23860    668.99567   -7960.6672   -7886.0397    457.55095    28585.988    25.325204 
   23870    674.47497   -7960.8382   -7885.5995    236.42944    28612.195    25.323107 
   23880    675.65683   -7960.5918   -7885.2213    234.08962    28638.912    25.324775 
   23890    671.96691   -7959.8646   -7884.9057    343.91333    28666.104    25.331018 
   23900    680.32439   -7960.5407   -7884.6495    255.16941    28693.999    25.338353 
   23910    677.28948   -7959.9928   -7884.4402    150.15331    28722.402    25.343226 
   23920    679.91662   -7960.1241   -7884.2784   -134.85356    28750.923    25.340132 
   23930     685.9489   -7960.6704   -7884.1518     -537.122    28778.708    25.326778 
   23940    684.29995   -7960.3978   -7884.0631   -630.37822    28804.649    25.303904 
   23950    676.42946   -7959.4639   -7884.0072   -554.61779    28828.415     25.27329 
   23960    670.79959   -7958.7972   -7883.9685   -441.20019    28850.217    25.239849 
   23970    664.53302   -7958.0576   -7883.9279   -307.15331    28870.445    25.209367 
   23980    665.07127    -7958.066   -7883.8763    -387.9388    28889.465    25.186632 
   23990    664.28624   -7957.9065   -7883.8044   -568.93964    28907.067    25.173807 
   24000    665.24484   -7957.9249   -7883.7159   -681.86714    28922.747    25.169131 
   24010    666.66488   -7957.9782   -7883.6107   -711.18665    28936.185    25.166504 
   24020    672.98713   -7958.5642   -7883.4915   -831.46798    28947.255    25.155666 
   24030     684.8799   -7959.7717   -7883.3723   -1022.5606    28955.604    25.132353 
   24040    684.59672   -7959.6356   -7883.2678   -1113.9047    28960.741    25.104488 
   24050     690.4461   -7960.2159   -7883.1956   -1188.2982    28962.364    25.076229 
   24060    695.15794   -7960.7063   -7883.1604   -1053.5556    28960.349    25.047507 
   24070    698.45498   -7961.0877    -7883.174   -817.97742    28955.128    25.017403 
   24080    691.90884   -7960.4176   -7883.2341   -707.88797    28947.389    24.985184 
   24090    688.60982   -7960.1536   -7883.3381   -788.42879    28937.485     24.95026 
   24100    681.74009   -7959.5213   -7883.4721   -756.03133    28925.293    24.913341 
   24110    690.85386   -7960.7013   -7883.6356   -626.01957    28910.938     24.87565 
   24120    702.01651   -7962.1588   -7883.8478   -630.60045    28894.774    24.845717 
   24130    699.30028   -7962.1446   -7884.1366   -625.75082    28876.851    24.833714 
   24140    687.58611   -7961.1954   -7884.4941   -530.24727    28857.229    24.835175 
   24150    682.49064   -7961.0367   -7884.9039   -572.81525    28836.151    24.837513 
   24160    674.39282   -7960.5827   -7885.3532   -578.10067     28813.57    24.832055 
   24170    659.28194   -7959.3495   -7885.8056   -406.63201     28789.54    24.817117 
   24180    651.51639    -7958.904   -7886.2263   -358.34551    28764.506    24.800768 
   24190    639.65517   -7957.9449   -7886.5904   -451.07649    28738.644    24.793237 
   24200     632.8183   -7957.4762   -7886.8844   -630.15768    28711.702    24.797203 
   24210    631.69278   -7957.5644   -7887.0982   -663.68147    28683.226    24.812355 
   24220    629.28631   -7957.4189    -7887.221   -478.42478    28653.159    24.834795 
   24230    640.77477   -7958.7335   -7887.2541   -258.61094    28622.043    24.855413 
   24240    650.58674   -7959.7808   -7887.2069   -106.14515    28590.558    24.862772 
   24250    651.24716   -7959.7406    -7887.093   -65.638103    28559.167    24.851934 
   24260    655.99384   -7960.0962   -7886.9191   -131.33369    28527.995    24.825967 
   24270    662.28518   -7960.5649    -7886.686   -164.36593    28496.893    24.796821 
   24280     671.5418   -7961.3073   -7886.3958   -146.27591    28465.776    24.778892 
   24290    679.31246   -7961.8326   -7886.0542    -96.24379    28434.698    24.776976 
   24300    681.24246   -7961.6629   -7885.6692    9.3974961    28403.821    24.784802 
   24310    675.26274   -7960.5645   -7885.2379    131.66435    28373.442     24.79074 
   24320    672.23301   -7959.7346    -7884.746     163.3957    28343.904    24.789283 
   24330    681.97768   -7960.2567    -7884.181     181.4082    28315.317    24.781501 
   24340    682.39133   -7959.6705   -7883.5487    376.97911    28287.782    24.766411 
   24350    677.40577   -7958.4405   -7882.8748    548.94177    28261.801    24.745458 
   24360    676.34713    -7957.621   -7882.1735    541.69702    28237.815    24.722665 
   24370    701.57935   -7959.7316   -7881.4694    401.62531     28215.75     24.70004 
   24380    702.70349   -7959.2057    -7880.818     786.0986    28195.366    24.684772 
   24390    688.44207    -7957.061   -7880.2643     1375.986    28177.679    24.680028 
   24400    691.59661   -7956.9451   -7879.7965     1555.073    28164.186    24.681569 
   24410    691.38373   -7956.5375   -7879.4126    1492.8348    28155.408    24.683341 
   24420    691.31423   -7956.2367   -7879.1195    1315.9569    28151.103    24.678738 
   24430    696.52337   -7956.6057   -7878.9075    1141.9507    28150.718    24.667063 
   24440    707.66851   -7957.7176   -7878.7761    1047.7106    28153.698    24.655194 
   24450    710.26967   -7957.9628   -7878.7311    1159.0147    28159.769    24.650207 
   24460    711.07272   -7958.0971   -7878.7759    1159.1209    28169.118    24.650597 
   24470     703.0478    -7957.319    -7878.893    1150.7166     28181.75    24.649125 
   24480    694.02121   -7956.4758   -7879.0567    1244.5176    28197.656    24.642659 
   24490    692.80421   -7956.5282   -7879.2448     1199.689    28217.001    24.634665 
   24500    698.34646   -7957.3579   -7879.4563    1044.7715    28239.632     24.62857 
   24510     692.4836    -7956.937   -7879.6895    870.31511    28265.088    24.621171 
   24520    685.70239    -7956.423   -7879.9319    569.44987    28292.812    24.610697 
   24530     686.3107   -7956.7301   -7880.1711    208.51105    28321.903    24.608787 
   24540    677.72985   -7956.0028    -7880.401    90.311668    28351.356    24.617982 
   24550    676.20318   -7956.0474   -7880.6159    32.151582    28380.771    24.626124 
   24560    686.38746   -7957.3898   -7880.8222    -134.2677    28409.929    24.630347 
   24570    676.14918   -7956.4513   -7881.0259   -106.90814    28438.425    24.637987 
   24580    665.20009   -7955.4233   -7881.2192   -15.872071    28466.294     24.65325 
   24590    654.54278   -7954.3921   -7881.3769     107.9887    28493.816    24.679915 
   24600    653.08741   -7954.3382   -7881.4853    151.18668    28521.333    24.718256 
   24610    668.08443   -7956.0784   -7881.5526    34.875039    28548.959    24.761038 
   24620    672.22076   -7956.5854   -7881.5982   -185.75879    28576.368    24.798929 
   24630    675.49514   -7956.9906   -7881.6381   -428.76388    28602.925     24.82901 
   24640    685.76879   -7958.1773   -7881.6788   -925.91257    28627.802    24.854303 
   24650    684.49254   -7958.0843   -7881.7282   -1420.1522     28649.59    24.874853 
   24660    680.77579   -7957.7367   -7881.7951   -1685.1536    28666.886    24.889799 
   24670    683.10702   -7958.0828   -7881.8812   -1758.7006    28678.919    24.902538 
   24680    674.03596   -7957.1772   -7881.9875   -1556.9118    28685.533    24.920775 
   24690    662.13303   -7955.9574   -7882.0955   -1226.1691    28687.388    24.950551 
   24700    672.36053   -7957.1984   -7882.1956   -1213.8544    28685.407    24.990379 
   24710    671.53479   -7957.2017    -7882.291   -1268.7229    28679.742    25.034029 
   24720    662.82967   -7956.3182   -7882.3785   -1333.8261    28670.292    25.077259 
   24730    666.96198   -7956.8535   -7882.4529   -1458.5355    28656.902    25.123451 
   24740    666.04524   -7956.8126   -7882.5143   -1445.9017    28639.315    25.178318 
   24750     665.8937   -7956.8466   -7882.5652    -1382.462    28617.594    25.240976 
   24760    664.68441   -7956.7492   -7882.6026   -1183.9637    28592.041    25.304372 
   24770    658.72829   -7956.0951    -7882.613   -985.27498    28563.279    25.360824 
   24780     656.4155   -7955.8025   -7882.5784   -856.60091    28531.947    25.411696 
   24790    660.64791   -7956.1741   -7882.4779    -610.4288    28498.585    25.460803 
   24800     665.8623   -7956.5752   -7882.2973   -366.42735    28463.956    25.512184 
   24810    672.60388   -7957.0656   -7882.0357   -270.32011    28428.793    25.572178 
   24820    685.15343    -7958.134   -7881.7041   -238.58944    28393.425    25.638091 
   24830    682.66665   -7957.4677   -7881.3152    73.786728    28358.077    25.703387 
   24840    673.37136   -7955.9861   -7880.8705    540.42538    28323.664    25.765148 
   24850    674.80092   -7955.6399   -7880.3649    785.14072    28291.459    25.820458 
   24860      686.926   -7956.4359   -7879.8083    700.04339    28262.113     25.86695 
   24870    698.11861   -7957.1133   -7879.2371     683.5644     28235.43    25.905004 
   24880    710.51276   -7957.9504   -7878.6916    779.19462    28211.319    25.936687 
   24890    729.26373   -7959.5677   -7878.2172    756.81925    28189.938    25.968153 
   24900    731.85408   -7959.5002   -7877.8608    816.26036    28171.232    26.007089 
   24910       733.91   -7959.5185   -7877.6497    920.57845    28155.273    26.055283 
   24920     720.0957   -7957.9054   -7877.5777    1074.3498    28142.328    26.108392 
   24930    694.77655   -7955.1149   -7877.6116    1030.3267    28132.719    26.155582 
   24940    694.10155   -7955.1376   -7877.7095     855.6477    28126.261    26.189485 
   24950    699.13418   -7955.8457   -7877.8562    716.85107    28122.405    26.216866 
   24960    702.91117   -7956.4716   -7878.0608     699.8187    28120.745    26.249953 
   24970    704.64513   -7956.9426   -7878.3384    644.91961    28121.142    26.296471 
   24980    693.66312   -7956.0599   -7878.6807    632.80615    28123.446    26.363582 
   24990    705.19117   -7957.7557   -7879.0906    415.51551    28127.508    26.449013 
   25000    708.56127    -7958.629    -7879.588    343.80931    28132.774    26.537442 
Loop time of 12362.6 on 16 procs for 20000 steps with 864 atoms

Performance: 0.140 ns/day, 171.703 hours/ns, 1.618 timesteps/s
97.9% CPU use with 16 MPI tasks x 1 OpenMP threads

MPI task timing breakdown:
Section |  min time  |  avg time  |  max time  |%varavg| %total
---------------------------------------------------------------
Pair    | 6522.3     | 10179      | 12030      |1983.0 | 82.34
Bond    | 0.0017824  | 0.0052313  | 0.0099299  |   3.4 |  0.00
Neigh   | 0.22627    | 0.23896    | 0.25473    |   1.2 |  0.00
Comm    | 231.5      | 2023.3     | 5680.1     |4422.3 | 16.37
Output  | 5.2506     | 5.2816     | 5.7331     |   5.1 |  0.04
Modify  | 92.499     | 154.44     | 247.08     | 427.4 |  1.25
Other   |            | 0.09548    |            |       |  0.00

Nlocal:        54.0000 ave          60 max          49 min
Histogram: 1 2 5 0 1 2 1 2 0 2
Nghost:        423.562 ave         454 max         402 min
Histogram: 2 1 5 1 0 3 2 1 0 1
Neighs:         0.00000 ave           0 max           0 min
Histogram: 16 0 0 0 0 0 0 0 0 0
FullNghs:      1611.88 ave        1870 max        1344 min
Histogram: 1 1 1 5 0 1 3 1 1 2

Total # of neighbors = 25790
Ave neighs/atom = 29.849537
Ave special neighs/atom = 0.0000000
Neighbor list builds = 2000
Dangerous builds = 2000
unfix   3
                
Total wall time: 4:16:52
