LAMMPS (29 Sep 2021 - Update 3)
OMP_NUM_THREADS environment is not set. Defaulting to 1 thread. (src/comm.cpp:98)
  using 1 OpenMP thread(s) per MPI task
units	metal
atom_style	full

read_data	mixed.data
Reading data file ...
  orthogonal box = (0.0000000 0.0000000 0.0000000) to (15.866041 15.852264 77.123517)
  2 by 1 by 8 MPI processor grid
  reading atoms ...
  864 atoms
Finding 1-2 1-3 1-4 neighbors ...
  special bond factors lj:    0        0        0       
  special bond factors coul:  0        0        0       
     0 = max # of 1-2 neighbors
     0 = max # of 1-3 neighbors
     0 = max # of 1-4 neighbors
     1 = max # of special neighbors
  special bonds CPU = 0.001 seconds
  read_data CPU = 0.015 seconds

pair_style	quip
pair_coeff	* * /ocean/projects/cts180021p/wuziqi/clease/mint-PD/PhaseDiagram-Clease/Liquid/GAP_potential/gap_LiKCl.xml "Potential xml_label=GAP_2021_9_27_0_1_17_37_618" 17 19 3

neighbor	0.3 bin
neigh_modify	delay 10

timestep	0.001
compute	msd all msd
thermo_style	custom step temp pe etotal press vol c_msd[4]
thermo	10
dump	1 all custom 10 xyz-mix.dump type id x y z
dump	2 all custom 10 force-mix.dump type id fx fy fz

fix     1 all nve
run     2000
Neighbor list info ...
  update every 1 steps, delay 10 steps, check yes
  max neighbors/atom: 2000, page size: 100000
  master list distance cutoff = 6.22
  ghost atom cutoff = 6.22
  binsize = 3.11, bins = 6 6 25
  1 neighbor lists, perpetual/occasional/extra = 1 0 0
  (1) pair quip, perpetual
      attributes: full, newton on
      pair build: full/bin
      stencil: full/bin/3d
      bin: standard
Per MPI rank memory allocation (min/avg/max) = 8.889 | 8.906 | 8.916 Mbytes
Step Temp PotEng TotEng Press Volume c_msd[4] 
       0            0   -8878.9247   -8878.9247   -11708.833    19397.542            0 
      10    108.80145    -8891.078    -8878.941   -13519.947    19397.542 0.00037756483 
      20    255.99871   -8907.5101   -8878.9531   -15433.074    19397.542  0.004636157 
      30    288.56988   -8911.1358   -8878.9454   -14361.122    19397.542  0.015943357 
      40    289.10053   -8911.1934   -8878.9438   -12512.136    19397.542  0.032214776 
      50    304.26419   -8912.8839   -8878.9428   -12190.839    19397.542  0.050010352 
      60    330.67215   -8915.8353   -8878.9484    -12512.07    19397.542  0.067008738 
      70    319.75479    -8914.613   -8878.9439   -12021.554    19397.542  0.084636553 
      80     311.7171   -8913.7131   -8878.9406   -11242.174    19397.542   0.10335882 
      90    344.97025   -8917.4272   -8878.9452   -11377.847    19397.542   0.12285636 
     100    369.47631   -8920.1625   -8878.9469   -11460.202    19397.542   0.14373353 
     110    369.44402   -8920.1551   -8878.9431   -10737.559    19397.542   0.16547428 
     120    381.04496   -8921.4513   -8878.9452   -10101.733    19397.542   0.18697263 
     130    387.01967   -8922.1174   -8878.9447    -9853.945    19397.542   0.20927079 
     140    390.46305   -8922.5002   -8878.9434   -10154.629    19397.542   0.23274757 
     150    401.17379   -8923.6966   -8878.9451   -10935.233    19397.542   0.25686229 
     160    405.60936   -8924.1923    -8878.946   -11533.497    19397.542   0.28181117 
     170    403.00983   -8923.9035   -8878.9472   -11313.905    19397.542   0.30705714 
     180    385.93942   -8921.9971   -8878.9449   -10395.352    19397.542   0.33328028 
     190    384.55592   -8921.8429   -8878.9451   -9702.4152    19397.542    0.3615061 
     200    397.89654   -8923.3338   -8878.9478   -9508.3306    19397.542   0.39138176 
     210    403.74057   -8923.9838    -8878.946   -9854.3562    19397.542   0.41959204 
     220    419.25516   -8925.7147   -8878.9462   -11120.155    19397.542   0.44190424 
     230    437.64496   -8927.7678   -8878.9478   -12741.979    19397.542   0.46059951 
     240    436.22365   -8927.6096   -8878.9482   -13773.271    19397.542   0.48016288 
     250     417.4692   -8925.5154   -8878.9461   -14188.084    19397.542   0.50051511 
     260    403.07006   -8923.9093   -8878.9463   -14452.366    19397.542   0.51954432 
     270    390.78955   -8922.5388   -8878.9456   -14869.677    19397.542   0.53842732 
     280    390.91941   -8922.5534   -8878.9458   -15753.944    19397.542   0.55789535 
     290    394.53071   -8922.9579   -8878.9474   -16866.473    19397.542   0.57907365 
     300    385.46639   -8921.9447   -8878.9454   -17556.881    19397.542   0.60332818 
     310    388.07639   -8922.2367   -8878.9462   -18102.563    19397.542   0.62988844 
     320    395.22438   -8923.0346   -8878.9467   -18476.923    19397.542   0.65693198 
     330     392.7193   -8922.7554    -8878.947   -18634.964    19397.542   0.68294096 
     340    387.36548    -8922.158   -8878.9468   -18928.114    19397.542    0.7064488 
     350    383.70376     -8921.75   -8878.9472   -19255.038    19397.542   0.72809194 
     360    380.16279   -8921.3526   -8878.9449   -19764.905    19397.542   0.74756432 
     370    391.53302   -8922.6238   -8878.9477   -20433.416    19397.542   0.76345228 
     380    397.18733   -8923.2529   -8878.9461   -20848.612    19397.542   0.77799013 
     390    399.66038   -8923.5327     -8878.95   -20962.623    19397.542    0.7926845 
     400    376.74168   -8920.9703   -8878.9442   -20594.318    19397.542   0.80792627 
     410    384.01385   -8921.7861   -8878.9488   -20827.442    19397.542   0.82090067 
     420    385.42711   -8921.9432   -8878.9482    -21282.02    19397.542   0.83289421 
     430    375.82197   -8920.8694   -8878.9459   -21749.833    19397.542   0.84474346 
     440    377.40301   -8921.0478   -8878.9479   -22280.425    19397.542   0.85654263 
     450    373.39276   -8920.5987   -8878.9462   -22358.315    19397.542   0.87121917 
     460    380.55104   -8921.3982   -8878.9472   -22127.174    19397.542   0.88923864 
     470    389.08947   -8922.3531   -8878.9496   -21563.629    19397.542   0.90990069 
     480    377.88025   -8921.0989   -8878.9458   -20903.426    19397.542   0.93174236 
     490    381.74982   -8921.5319   -8878.9472   -20620.986    19397.542   0.94962563 
     500    394.14575   -8922.9156   -8878.9481   -20486.731    19397.542   0.96309083 
     510    397.04898   -8923.2389   -8878.9475   -19997.235    19397.542   0.97658553 
     520    399.82595   -8923.5491    -8878.948   -19535.484    19397.542   0.99241283 
     530    404.27704   -8924.0446   -8878.9469    -19115.46    19397.542    1.0084992 
     540     411.3451   -8924.8362     -8878.95   -18661.849    19397.542    1.0226069 
     550    394.09812   -8922.9082    -8878.946   -17821.103    19397.542    1.0374953 
     560    386.81962   -8922.0987   -8878.9484   -17144.624    19397.542    1.0531551 
     570    383.04436   -8921.6747   -8878.9456   -16711.306    19397.542    1.0690946 
     580    397.22268   -8923.2587   -8878.9479   -16702.646    19397.542    1.0866029 
     590    408.28446   -8924.4929   -8878.9481   -16623.668    19397.542    1.1074158 
     600    405.74477   -8924.2095   -8878.9481   -16314.107    19397.542    1.1302748 
     610    396.02325   -8923.1251   -8878.9481    -15628.66    19397.542    1.1519665 
     620     395.3341   -8923.0495   -8878.9494   -15051.831    19397.542    1.1694303 
     630    394.27036   -8922.9318   -8878.9503   -14512.907    19397.542    1.1828305 
     640    383.62649   -8921.7417   -8878.9476   -14067.198    19397.542    1.1945401 
     650    385.14193   -8921.9112    -8878.948   -13839.463    19397.542    1.2068311 
     660     395.4713   -8923.0651   -8878.9497   -13755.797    19397.542    1.2218962 
     670     396.9724   -8923.2312   -8878.9483   -13681.042    19397.542    1.2411479 
     680    400.76426   -8923.6562   -8878.9504   -13529.754    19397.542    1.2649597 
     690    395.59922   -8923.0782   -8878.9485   -13202.541    19397.542    1.2892968 
     700    393.08673   -8922.7984    -8878.949    -12863.36    19397.542    1.3108518 
     710    392.46287   -8922.7295   -8878.9497   -12776.215    19397.542    1.3306314 
     720    392.69983   -8922.7538   -8878.9476   -12960.731    19397.542    1.3493343 
     730    407.70626    -8924.431   -8878.9507   -13617.908    19397.542    1.3652761 
     740    418.60831   -8925.6458   -8878.9494   -14182.857    19397.542    1.3758719 
     750    427.35697   -8926.6222   -8878.9499   -14411.802    19397.542    1.3817369 
     760    426.23067   -8926.4956    -8878.949   -14240.457    19397.542    1.3874968 
     770    425.68986   -8926.4355   -8878.9492   -14121.142    19397.542    1.3956033 
     780    424.34662   -8926.2861   -8878.9496   -14199.692    19397.542    1.4059418 
     790    416.51178   -8925.4118   -8878.9493   -14348.579    19397.542    1.4172819 
     800    406.85203   -8924.3329   -8878.9479   -14603.708    19397.542    1.4293586 
     810     409.3926   -8924.6176   -8878.9492   -14954.594    19397.542    1.4437899 
     820    411.52943   -8924.8561   -8878.9494   -15227.004    19397.542     1.461671 
     830    414.76526   -8925.2161   -8878.9484   -15348.177    19397.542    1.4822988 
     840    425.47297   -8926.4126   -8878.9505   -15497.059    19397.542    1.5061095 
     850    424.10961   -8926.2589   -8878.9489    -15461.05    19397.542    1.5339208 
     860    425.84903   -8926.4531    -8878.949   -15668.017    19397.542    1.5638872 
     870    428.28778   -8926.7265   -8878.9503   -15975.954    19397.542    1.5941429 
     880    422.32484   -8926.0597   -8878.9487   -16050.391    19397.542    1.6254163 
     890    420.59441   -8925.8681   -8878.9502   -16210.368    19397.542    1.6579317 
     900    412.78354   -8924.9958   -8878.9492   -16186.118    19397.542    1.6917804 
     910    408.88335   -8924.5603   -8878.9488   -16398.021    19397.542    1.7253326 
     920    415.25495   -8925.2723     -8878.95   -16866.947    19397.542    1.7566903 
     930    417.79568   -8925.5555   -8878.9498    -17314.63    19397.542    1.7866576 
     940    414.15774   -8925.1502   -8878.9503   -17816.895    19397.542    1.8175362 
     950    410.14766   -8924.7024   -8878.9498   -18397.528    19397.542     1.850555 
     960    412.13206   -8924.9218   -8878.9478   -18864.984    19397.542    1.8837942 
     970    427.90234   -8926.6835   -8878.9503   -19165.223    19397.542    1.9147148 
     980    431.11936    -8927.043    -8878.951    -19021.79    19397.542    1.9457246 
     990    415.64991   -8925.3145   -8878.9482   -18606.767    19397.542    1.9812421 
    1000    413.92707   -8925.1233   -8878.9491   -18513.829    19397.542    2.0201072 
    1010    417.45395   -8925.5177     -8878.95   -18558.895    19397.542    2.0574524 
    1020    414.66605   -8925.2045   -8878.9479    -18540.13    19397.542    2.0909232 
    1030    425.32279   -8926.3944    -8878.949   -18804.281    19397.542    2.1200334 
    1040    437.39791    -8927.743   -8878.9506    -19174.44    19397.542    2.1461906 
    1050    432.04437    -8927.144   -8878.9488   -19430.964    19397.542    2.1724444 
    1060    423.10855   -8926.1471   -8878.9487    -19670.97    19397.542     2.200914 
    1070    416.30819    -8925.389   -8878.9492   -19752.208    19397.542     2.232564 
    1080    410.19009   -8924.7058   -8878.9485   -19471.789    19397.542    2.2656179 
    1090    411.43188   -8924.8454   -8878.9496   -18927.842    19397.542    2.2963807 
    1100    413.58688   -8925.0849   -8878.9486   -18540.027    19397.542    2.3238349 
    1110    425.71996   -8926.4384   -8878.9486   -18620.545    19397.542    2.3474636 
    1120    443.01807   -8928.3709   -8878.9516   -18883.908    19397.542    2.3679172 
    1130    437.42575   -8927.7454   -8878.9499   -18767.479    19397.542    2.3882255 
    1140    422.48256   -8926.0773   -8878.9487   -18476.767    19397.542    2.4089666 
    1150    414.07643   -8925.1393   -8878.9485   -18282.798    19397.542    2.4284943 
    1160    416.01416   -8925.3558   -8878.9488   -18291.885    19397.542     2.446853 
    1170    419.66714   -8925.7642   -8878.9497   -18446.717    19397.542    2.4644412 
    1180    424.21945   -8926.2706   -8878.9483    -18449.36    19397.542    2.4806419 
    1190    440.19598   -8928.0557   -8878.9512   -18343.062    19397.542    2.4945267 
    1200    440.38662   -8928.0752   -8878.9494   -17908.359    19397.542     2.507228 
    1210    440.40752   -8928.0774   -8878.9493   -17509.071    19397.542    2.5196997 
    1220    445.29341   -8928.6232   -8878.9501   -17433.008    19397.542    2.5321836 
    1230    444.31811   -8928.5138   -8878.9494   -17404.254    19397.542    2.5456285 
    1240    444.21916   -8928.5028   -8878.9495   -17567.287    19397.542    2.5617678 
    1250    447.95301   -8928.9197   -8878.9499   -17998.888    19397.542    2.5810013 
    1260    447.05056     -8928.82   -8878.9509   -18113.089    19397.542    2.6027835 
    1270    433.76409   -8927.3363   -8878.9493   -17647.746    19397.542    2.6267411 
    1280    426.49744   -8926.5249   -8878.9485   -17215.404    19397.542    2.6522665 
    1290    438.76938   -8927.8949   -8878.9495   -17215.004    19397.542     2.679609 
    1300     454.8554   -8929.6913   -8878.9515   -17412.029    19397.542    2.7096074 
    1310    451.74789   -8929.3435   -8878.9504   -17515.094    19397.542    2.7419599 
    1320    440.03726   -8928.0361   -8878.9493    -17582.78    19397.542    2.7732724 
    1330    433.51813    -8927.309   -8878.9494   -17627.787    19397.542    2.7991894 
    1340    430.66307   -8926.9918   -8878.9507   -17406.648    19397.542    2.8192899 
    1350    422.06307   -8926.0311   -8878.9493    -17030.68    19397.542    2.8369839 
    1360    423.68793   -8926.2128   -8878.9498   -16872.793    19397.542    2.8564726 
    1370    432.23825   -8927.1671   -8878.9502   -16941.721    19397.542    2.8798412 
    1380    440.61409   -8928.1014   -8878.9502   -17160.411    19397.542     2.904214 
    1390    442.38617   -8928.3005   -8878.9516   -17288.698    19397.542    2.9262872 
    1400    432.82497   -8927.2303    -8878.948   -17111.965    19397.542    2.9462931 
    1410    443.20721   -8928.3906   -8878.9502   -17379.272    19397.542    2.9656964 
    1420     452.8574   -8929.4692   -8878.9523   -17581.285    19397.542    2.9866189 
    1430    440.33742   -8928.0699   -8878.9496    -17078.18    19397.542    3.0107644 
    1440    434.09539   -8927.3728   -8878.9488   -16559.852    19397.542    3.0372306 
    1450    446.59797     -8928.77   -8878.9513   -16458.202    19397.542    3.0634597 
    1460    455.16552   -8929.7248   -8878.9504   -16509.198    19397.542    3.0883146 
    1470     460.5176    -8930.323   -8878.9516   -16639.411    19397.542    3.1117695 
    1480    455.78137    -8929.792   -8878.9489   -16643.605    19397.542    3.1332037 
    1490    461.66937   -8930.4506   -8878.9507   -16632.215    19397.542     3.152331 
    1500    464.06114   -8930.7172   -8878.9504   -16316.323    19397.542    3.1724877 
    1510    464.69685   -8930.7871   -8878.9495    -16148.36    19397.542    3.1960897 
    1520    471.22077   -8931.5167   -8878.9514   -16208.841    19397.542    3.2225013 
    1530    471.47122   -8931.5429   -8878.9496   -16597.639    19397.542    3.2496574 
    1540    479.04999   -8932.3903   -8878.9516   -17340.131    19397.542    3.2743864 
    1550    475.60674   -8932.0055   -8878.9508   -17872.304    19397.542    3.2971604 
    1560    465.76065   -8930.9064   -8878.9501   -17822.552    19397.542    3.3221892 
    1570    460.06152    -8930.271   -8878.9505    -17442.47    19397.542    3.3512444 
    1580    459.40082   -8930.1971   -8878.9502   -16941.542    19397.542    3.3813068 
    1590    460.93829   -8930.3707   -8878.9523   -16350.345    19397.542    3.4083736 
    1600     448.2201   -8928.9504   -8878.9508   -15603.607    19397.542    3.4316634 
    1610     443.9941   -8928.4772    -8878.949    -15275.86    19397.542    3.4534934 
    1620    463.51034   -8930.6582    -8878.953   -15593.563    19397.542    3.4766509 
    1630    474.66564   -8931.9011   -8878.9514   -16126.405    19397.542    3.5034224 
    1640    481.75389   -8932.6918   -8878.9514   -16542.721    19397.542    3.5333548 
    1650    479.37897   -8932.4264    -8878.951   -16541.998    19397.542    3.5648125 
    1660    474.97776   -8931.9337   -8878.9492   -16284.173    19397.542    3.5952514 
    1670    481.99089    -8932.719   -8878.9522   -15990.017    19397.542    3.6221631 
    1680      474.213   -8931.8498   -8878.9506   -15457.654    19397.542    3.6454728 
    1690    462.13083    -8930.502   -8878.9506   -14731.806    19397.542     3.665115 
    1700    458.63731   -8930.1109   -8878.9492   -14389.905    19397.542    3.6801149 
    1710    473.55465   -8931.7771   -8878.9513   -14547.389    19397.542    3.6915037 
    1720    483.59001    -8932.897   -8878.9518   -15013.331    19397.542    3.7021408 
    1730    481.36556   -8932.6472   -8878.9501   -15645.926    19397.542    3.7142289 
    1740    484.05437   -8932.9483   -8878.9513   -16474.749    19397.542    3.7288904 
    1750    482.16869   -8932.7383   -8878.9516   -16722.219    19397.542     3.747119 
    1760    470.26243   -8931.4082   -8878.9497   -16475.495    19397.542    3.7689551 
    1770    472.75321   -8931.6852   -8878.9489   -16480.419    19397.542    3.7930019 
    1780    495.80424   -8934.2609   -8878.9532   -16801.632    19397.542     3.817904 
    1790    498.29189   -8934.5359   -8878.9506   -17030.699    19397.542    3.8432118 
    1800    497.22115   -8934.4163   -8878.9505   -17233.599    19397.542    3.8677962 
    1810    498.13201   -8934.5195   -8878.9521   -17294.852    19397.542    3.8916583 
    1820    485.17576   -8933.0725   -8878.9504   -16971.976    19397.542    3.9157232 
    1830    479.44537   -8932.4337   -8878.9509   -16627.564    19397.542    3.9391486 
    1840    478.88134   -8932.3712   -8878.9513   -16398.764    19397.542    3.9621449 
    1850     478.6415   -8932.3435   -8878.9503   -16406.049    19397.542    3.9857213 
    1860     486.1211   -8933.1789   -8878.9514   -16705.544    19397.542    4.0086822 
    1870    492.79459   -8933.9238   -8878.9519   -17221.514    19397.542    4.0297149 
    1880    491.36379   -8933.7648   -8878.9525   -18037.772    19397.542    4.0499732 
    1890    475.70955   -8932.0166   -8878.9505   -18910.363    19397.542    4.0709101 
    1900    464.92588   -8930.8141   -8878.9509   -19819.272    19397.542    4.0929306 
    1910    455.59431   -8929.7727   -8878.9505   -20229.987    19397.542    4.1160109 
    1920    452.87672   -8929.4684   -8878.9493   -20242.611    19397.542    4.1384657 
    1930    467.97161   -8931.1539   -8878.9509   -20369.825    19397.542    4.1581839 
    1940    485.34862   -8933.0926   -8878.9512   -20514.477    19397.542    4.1756159 
    1950    495.78252   -8934.2578   -8878.9525   -20428.878    19397.542    4.1936772 
    1960    500.11778   -8934.7389     -8878.95   -20591.437    19397.542    4.2145461 
    1970    511.99695   -8936.0681    -8878.954   -21344.221    19397.542    4.2363696 
    1980    499.23942   -8934.6421   -8878.9512   -21654.428    19397.542    4.2540635 
    1990    487.56603   -8933.3391   -8878.9504    -21588.86    19397.542    4.2657075 
    2000    485.14508   -8933.0707    -8878.952   -21134.343    19397.542    4.2770463 
Loop time of 1475.54 on 16 procs for 2000 steps with 864 atoms

Performance: 0.117 ns/day, 204.936 hours/ns, 1.355 timesteps/s
96.8% CPU use with 16 MPI tasks x 1 OpenMP threads

MPI task timing breakdown:
Section |  min time  |  avg time  |  max time  |%varavg| %total
---------------------------------------------------------------
Pair    | 291.2      | 702.11     | 1474.4     |1193.6 | 47.58
Bond    | 0.00013518 | 0.0002692  | 0.0010583  |   0.0 |  0.00
Neigh   | 0.014678   | 0.030227   | 0.063383   |   7.8 |  0.00
Comm    | 0.47838    | 671.89     | 1042       |1169.4 | 45.54
Output  | 0.36087    | 33.586     | 68.352     | 456.8 |  2.28
Modify  | 0.0081537  | 0.0095919  | 0.011321   |   1.1 |  0.00
Other   |            | 67.92      |            |       |  4.60

Nlocal:        54.0000 ave          90 max          29 min
Histogram: 3 3 0 2 3 1 0 2 0 2
Nghost:        493.750 ave         643 max         369 min
Histogram: 3 1 0 3 2 2 1 2 0 2
Neighs:         0.00000 ave           0 max           0 min
Histogram: 16 0 0 0 0 0 0 0 0 0
FullNghs:      2706.00 ave        5944 max         890 min
Histogram: 6 0 2 1 3 0 2 0 0 2

Total # of neighbors = 43296
Ave neighs/atom = 50.111111
Ave special neighs/atom = 0.0000000
Neighbor list builds = 200
Dangerous builds = 200
unfix   1

velocity    all create 637.5 1312343 dist gaussian
fix     2 all npt temp 637.5 637.5 $(100.0*dt) aniso 0.0 1.01325 $(1000.0*dt)
fix     2 all npt temp 637.5 637.5 0.10000000000000000555 aniso 0.0 1.01325 $(1000.0*dt)
fix     2 all npt temp 637.5 637.5 0.10000000000000000555 aniso 0.0 1.01325 1
run     3000
Per MPI rank memory allocation (min/avg/max) = 8.894 | 8.909 | 8.920 Mbytes
Step Temp PotEng TotEng Press Volume c_msd[4] 
    2000        637.5   -8933.0707   -8861.9566   -20198.498    19397.542    4.2770463 
    2010     586.2695    -8927.584   -8862.1848   -18248.949    19382.764    4.2994295 
    2020    512.13091   -8919.7853   -8862.6563   -14354.747    19341.272    4.3224319 
    2030    538.27319   -8923.1402    -8863.095   -11994.169    19278.642    4.3368396 
    2040    573.06599   -8927.3181   -8863.3917   -9798.7581    19199.142    4.3410181 
    2050    589.63768   -8929.2704   -8863.4955   -6554.0551    19107.045     4.337853 
    2060    601.63861   -8930.4126   -8863.2989   -2731.6387     19008.22    4.3296186 
    2070    608.58023   -8930.6805   -8862.7925    1038.8197    18909.352    4.3203755 
    2080    606.07795   -8929.6823   -8862.0734     4536.117    18816.744    4.3121747 
    2090    594.35877   -8927.5406    -8861.239    7728.9596    18735.729    4.3019992 
    2100    593.06906   -8926.5028   -8860.3451    10284.085    18670.372    4.2858364 
    2110    612.50406   -8927.7884   -8859.4626    11963.769    18623.201    4.2628219 
    2120    641.76799   -8930.2852    -8858.695    12649.894    18595.116    4.2361087 
    2130    636.49704   -8929.1275   -8858.1253    12834.724    18585.656    4.2106799 
    2140     628.1024   -8927.8424   -8857.7767    11681.801    18593.575    4.1891679 
    2150    645.89925   -8929.6414   -8857.5904    9046.0676    18616.124    4.1716674 
    2160    644.09913   -8929.3446   -8857.4944    6544.7004    18649.153    4.1587936 
    2170    627.38496   -8927.4281   -8857.4423    4178.2247    18688.762    4.1517342 
    2180     604.1538   -8924.7482    -8857.354    1930.6802    18731.525    4.1513896 
    2190    601.56994   -8924.2749   -8857.1689   -685.03697    18774.267    4.1577144 
    2200     627.8308   -8926.8982   -8856.8627   -3315.6211    18813.576    4.1699278 
    2210    632.43565   -8927.0345   -8856.4853   -4710.7183    18846.309     4.187585 
    2220    626.47689   -8925.9874   -8856.1029   -4979.5422    18870.961    4.2110236 
    2230    624.51521   -8925.3795   -8855.7139   -4655.5938    18887.568    4.2407494 
    2240    623.59381   -8924.8569   -8855.2941   -3907.1877    18897.018    4.2754524 
    2250    635.46406     -8925.73    -8854.843   -3424.6103    18900.604     4.314191 
    2260    631.52123   -8924.8323   -8854.3852   -2816.1646    18899.346    4.3567191 
    2270    634.01539   -8924.6705   -8853.9452   -2085.0408    18894.293    4.4006972 
    2280    645.62262   -8925.5427   -8853.5226   -980.32959    18886.653    4.4421232 
    2290    652.52979   -8925.9233   -8853.1326    86.025236    18877.979    4.4756457 
    2300    656.96559   -8926.0946   -8852.8091     512.8527    18869.664    4.4971579 
    2310    655.97361   -8925.7489    -8852.574    675.88884    18862.318    4.5068146 
    2320    657.82226   -8925.8088   -8852.4277    899.33726    18856.168    4.5071787 
    2330    652.72468   -8925.1518   -8852.3394    1316.6607    18851.486    4.5002034 
    2340    648.56958   -8924.6211   -8852.2722    1300.1647    18848.704    4.4877931 
    2350    652.52395   -8925.0012   -8852.2111    1028.6024    18847.775    4.4714444 
    2360     641.3707   -8923.7025   -8852.1566     908.7227     18848.31    4.4506206 
    2370    640.74684   -8923.5968   -8852.1205    429.86979    18850.033    4.4251373 
    2380    646.95023    -8924.269   -8852.1007    -208.6898    18852.298     4.396072 
    2390    657.73714   -8925.4705   -8852.0989   -949.47624    18854.195    4.3672003 
    2400     666.6614   -8926.4946   -8852.1275   -1155.3582    18854.794    4.3418283 
    2410    656.15751   -8925.3957   -8852.2004   -384.47806    18853.914    4.3195694 
    2420    645.56475    -8924.316   -8852.3023    118.66468    18852.483    4.2983525 
    2430    651.23734   -8925.0646   -8852.4181   -227.47818    18851.164    4.2783174 
    2440    668.73525   -8927.1841   -8852.5856   -585.85003    18849.566    4.2616611 
    2450    672.96614   -8927.9232   -8852.8528   -39.147448    18847.323    4.2499713 
    2460    663.42839   -8927.2398   -8853.2334     933.2444    18845.123    4.2436742 
    2470    652.68912   -8926.4971   -8853.6887    1755.2965    18844.239    4.2406697 
    2480    653.89508   -8927.1429   -8854.1999     1951.755    18845.728    4.2367029 
    2490    640.33434   -8926.1764   -8854.7461    1567.4624    18849.823    4.2316942 
    2500    622.29687   -8924.6931   -8855.2749    921.42873    18856.001     4.226627 
    2510    644.57387   -8927.6753   -8855.7721   -314.86468    18863.245    4.2202415 
    2520    664.02454   -8930.3451   -8856.2722   -957.68478    18869.985    4.2133697 
    2530    649.13167   -8929.1923   -8856.7807    -220.0072    18875.434    4.2082058 
    2540    629.62676   -8927.4859   -8857.2501    478.81233    18880.467    4.2032729 
    2550    628.48634   -8927.7547   -8857.6461    160.41885    18885.954     4.197327 
    2560    634.72807   -8928.7815   -8857.9766   -537.71672     18891.54    4.1913626 
    2570    636.56647   -8929.2736   -8858.2636   -1278.5624    18896.274     4.186998 
    2580    628.53416   -8928.6227   -8858.5087   -1343.6625    18899.228    4.1854442 
    2590    625.61543   -8928.4922   -8858.7038   -660.90513    18900.352    4.1851808 
    2600    641.78442   -8930.4552   -8858.8632    16.715647    18900.534    4.1812198 
    2610    650.29015   -8931.5549   -8859.0141    299.09934    18900.689    4.1700279 
    2620    656.07781   -8932.3604    -8859.174     247.8514    18901.222    4.1516421 
    2630    658.46233   -8932.8014    -8859.349    325.02349    18902.124    4.1300095 
    2640      647.174   -8931.7299   -8859.5366    517.68623    18903.492      4.11042 
    2650    643.57195   -8931.5253   -8859.7339    288.37554    18905.515    4.0942332 
    2660    658.44572   -8933.3952   -8859.9446   -763.73009    18907.782    4.0797073 
    2670     679.1511   -8935.9699   -8860.2096   -1437.0614    18909.005    4.0667998 
    2680    668.26181   -8935.0902   -8860.5446    -978.1691    18908.359    4.0563016 
    2690    662.40982   -8934.8202   -8860.9274    -244.2859    18906.395    4.0473098 
    2700    654.89032   -8934.3903   -8861.3363    280.33637    18904.095    4.0399194 
    2710    641.27602   -8933.2664   -8861.7311    859.06152    18902.266    4.0337655 
    2720    666.29743   -8936.4522   -8862.1257    147.49586    18901.485    4.0262879 
    2730    676.21685   -8937.9953   -8862.5623   -765.00722    18900.899    4.0172591 
    2740    660.19359   -8936.6775   -8863.0319   -894.61127    18899.363    4.0082161 
    2750     660.9844   -8937.2275   -8863.4937   -937.65643    18896.608    3.9991538 
    2760    656.71784    -8937.192   -8863.9341   -688.34996    18892.644    3.9909727 
    2770    638.43148   -8935.5575   -8864.3395   -55.901809    18887.837    3.9853943 
    2780    633.65996   -8935.3793   -8864.6936    973.01195    18883.102    3.9814357 
    2790     628.7495   -8935.1144   -8864.9764    2132.4767    18879.839    3.9763796 
    2800    631.77114   -8935.6692   -8865.1942    2469.8199    18879.491    3.9704932 
    2810     642.0112   -8936.9969   -8865.3796    2139.7104    18882.503    3.9687386 
    2820     642.6864   -8937.2462   -8865.5535    1803.4839     18888.43    3.9707637 
    2830     641.3986   -8937.2687   -8865.7198     1618.964    18896.794    3.9744243 
    2840    657.25176    -8939.207   -8865.8896    1163.2882    18907.247    3.9780107 
    2850     676.7271   -8941.5893   -8866.0994    669.68552    18919.141    3.9809259 
    2860    670.00649   -8941.1227   -8866.3825     426.2687    18931.802    3.9849877 
    2870    647.11999   -8938.9038   -8866.7166    288.79362    18944.866     3.992935 
    2880    636.22677   -8938.0273   -8867.0552     -36.0145    18958.092    4.0074815 
    2890    632.77937   -8937.9531   -8867.3656   -1013.6803    18970.963    4.0297273 
    2900     639.4057   -8938.9651   -8867.6384   -2539.2466    18982.113    4.0568763 
    2910    635.94943   -8938.8218   -8867.8807   -3528.9282    18989.571    4.0857189 
    2920    624.34823   -8937.7452   -8868.0982   -3997.0958        18992      4.11359 
    2930    622.79018   -8937.7622    -8868.289   -4400.2671    18988.781    4.1391581 
    2940    629.93877   -8938.7363   -8868.4657   -5012.0606    18979.383    4.1619487 
    2950    639.41904   -8939.9815   -8868.6533   -5086.2848    18963.189    4.1824787 
    2960    643.32704   -8940.6221    -8868.858   -4248.9047    18940.257    4.2023428 
    2970    655.14875   -8942.1533   -8869.0705   -2847.5694    18911.859    4.2252066 
    2980     672.2396   -8944.3015   -8869.3121   -1294.9802    18880.043    4.2532258 
    2990    659.45226   -8943.1555   -8869.5926    359.42776    18847.074    4.2822982 
    3000     637.8258   -8941.0389   -8869.8885    1572.3612    18815.204     4.307954 
    3010    638.35667    -8941.379   -8870.1693    2147.5131    18786.099    4.3305652 
    3020    660.15035   -8944.1056   -8870.4649    1905.1496    18760.445    4.3536002 
    3030    669.59962   -8945.5084   -8870.8135    1811.2046    18737.964    4.3802167 
    3040    671.10397   -8946.0874   -8871.2247    2145.1933    18718.481    4.4086689 
    3050    666.52311   -8946.0366   -8871.6849    2903.0346    18702.384    4.4352328 
    3060    656.44463   -8945.4012   -8872.1738    3350.5148    18690.555    4.4577515 
    3070    652.38414   -8945.4459   -8872.6715    2512.3549    18683.367    4.4747804 
    3080    656.65527   -8946.4054   -8873.1546    754.72902    18679.636    4.4865407 
    3090    666.13142   -8947.9327   -8873.6248   -1056.6188    18677.002    4.4976907 
    3100    654.56425   -8947.0972   -8874.0796   -2269.4915    18673.051    4.5150751 
    3110    632.20279   -8945.0043   -8874.4811   -2949.7229    18666.145    4.5404945 
    3120    645.15254   -8946.7902   -8874.8224   -3688.3374    18655.333    4.5714464 
    3130    669.23202   -8949.8063   -8875.1525   -3713.8608    18639.787    4.6060963 
    3140    676.19075   -8950.9334   -8875.5034   -2142.4886    18619.709    4.6441525 
    3150    663.35134   -8949.8503   -8875.8525    -419.8374    18597.148    4.6841554 
    3160    641.62164   -8947.7325   -8876.1586    705.67684    18574.422    4.7243656 
    3170    648.10613   -8948.7177   -8876.4205    715.51775    18552.975    4.7666662 
    3180    663.54469   -8950.6974    -8876.678    731.60426    18532.924    4.8129885 
    3190    665.12797   -8951.1457   -8876.9496    1348.5637    18514.329    4.8591919 
    3200    675.40342   -8952.6017   -8877.2595    1920.1732    18497.933    4.8985755 
    3210    674.49432   -8952.8707   -8877.6298    2655.9898    18484.484     4.928877 
    3220    659.81042   -8951.6534   -8878.0505    3109.2473    18474.797     4.949839 
    3230    642.62144   -8950.1726   -8878.4872    3066.8927    18469.397    4.9663982 
    3240    643.42438   -8950.6767   -8878.9018    1640.3304    18468.025    4.9869673 
    3250     670.2076   -8954.0847    -8879.322   -667.58394    18468.766    5.0106174 
    3260    662.74345   -8953.7035   -8879.7734   -2056.7614    18468.706    5.0310535 
    3270    641.60966   -8951.8054   -8880.2329   -2696.6525    18465.964    5.0495188 
    3280    646.64067   -8952.8069   -8880.6732   -2764.1366    18459.764    5.0707913 
    3290    658.14136   -8954.5236   -8881.1069   -2427.4409    18450.036    5.0966752 
    3300     662.9508    -8955.502   -8881.5488   -1536.5141    18437.338     5.128945 
    3310    662.72639   -8955.9326   -8882.0045   -622.14082    18422.839     5.169071 
    3320    669.64876   -8957.1697   -8882.4694    61.993572     18407.75    5.2158893 
    3330    696.34989   -8960.6607   -8882.9818    176.25251    18392.932    5.2662039 
    3340    710.03999   -8962.7981   -8883.5921    205.25255    18378.601    5.3154899 
    3350    710.19513   -8963.5231   -8884.2998    765.14417    18364.861    5.3596941 
    3360    734.51969   -8967.0413   -8885.1045    1311.7029    18352.362    5.4002527 
    3370     754.1076   -8970.1648    -8886.043    1718.7548    18341.795    5.4413205 
    3380    726.28124   -8968.0772   -8887.0595    2549.3847    18333.725    5.4850877 
    3390    695.41547   -8965.5865   -8888.0118     2897.388    18329.072    5.5301241 
    3400    704.56766   -8967.4807   -8888.8851    2190.0297    18328.183    5.5755539 
    3410    709.42114   -8968.8525   -8889.7155    1140.0635     18330.17    5.6222158 
    3420    702.96357    -8968.935   -8890.5183   -537.40731    18333.561    5.6668468 
    3430      687.799   -8968.0186   -8891.2936   -2498.7025    18336.179    5.7075983 
    3440    673.74725   -8967.1848   -8892.0273   -3826.3896    18335.549    5.7463441 
    3450    689.62343   -8969.6867   -8892.7581   -4929.4119      18329.9    5.7866282 
    3460    705.81848   -8972.2915   -8893.5564   -5147.9224    18317.986     5.827336 
    3470    706.72383   -8973.2846   -8894.4485   -4562.1169    18299.622     5.865609 
    3480    703.20053   -8973.8563   -8895.4132   -3950.7362    18275.586    5.9059182 
    3490    691.69822   -8973.5542   -8896.3942    -3050.428    18246.841    5.9518338 
    3500    698.16423   -8975.2503   -8897.3691   -2281.7463    18214.579    6.0033311 
    3510    699.71101   -8976.3901   -8898.3363   -606.19744    18180.067    6.0573737 
    3520    691.61221   -8976.4119   -8899.2615    1261.1667    18145.453    6.1088172 
    3530    704.15336   -8978.7079   -8900.1585    1902.9159        18113    6.1541058 
    3540    727.15972   -8982.2283   -8901.1126    1789.8015    18083.574    6.1935515 
    3550    729.22415   -8983.4937   -8902.1476    1625.0885    18057.029    6.2311828 
    3560    728.03718    -8984.456   -8903.2423    1520.5894    18033.114     6.271184 
    3570    720.52918   -8984.7448   -8904.3686    1372.2457    18011.616    6.3146465 
    3580     718.7372   -8985.6641   -8905.4878    798.47354    17992.243    6.3586859 
    3590    724.88394   -8987.4888   -8906.6269    27.460705    17974.262    6.3999603 
    3600    702.51843   -8986.1171   -8907.7501   -198.31939    17956.761    6.4363422 
    3610    698.05087   -8986.6956    -8908.827   -353.38331    17939.372    6.4685548 
    3620    706.79169   -8988.7287    -8909.885   -171.31933    17921.951    6.5015716 
    3630    721.94394   -8991.5013   -8910.9674   -296.03576    17904.629    6.5350842 
    3640    735.34273   -8994.1648   -8912.1362   -592.88537    17887.287    6.5655962 
    3650    713.84463   -8992.9802   -8913.3498   -714.58399    17869.587    6.5945841 
    3660    704.53095   -8993.1223   -8914.5308     -1427.47    17851.309    6.6262941 
    3670    735.90374   -8997.8384   -8915.7472   -3649.7166    17831.414    6.6621462 
    3680    737.34341   -8999.3151   -8917.0633   -4138.2681    17807.621    6.7036041 
    3690    721.31108   -8998.8678   -8918.4044   -3511.2134     17779.33    6.7480279 
    3700    725.37897    -9000.661   -8919.7439   -3087.2878    17747.298    6.7925392 
    3710    728.09657   -9002.3229   -8921.1026   -2451.3637    17712.253    6.8388774 
    3720    717.95243    -9002.541   -8922.4524   -1672.3343    17675.086    6.8869993 
    3730     719.3653   -9004.0138   -8923.7675   -1069.6879    17636.791    6.9312576 
    3740    728.16498   -9006.3061   -8925.0782   -468.84627     17598.23    6.9713677 
    3750    733.49432   -9008.2185   -8926.3961    352.49632    17560.222    7.0125748 
    3760     737.8257   -9010.0196    -8927.714    1622.4719    17523.816    7.0582936 
    3770    756.20783   -9013.4324   -8929.0763    2558.9847    17490.393    7.1061603 
    3780    748.14276   -9013.9608   -8930.5044    4180.2243    17461.152    7.1458627 
    3790    737.02909   -9014.1234   -8931.9067    5119.7862    17437.712     7.167141 
    3800     773.0767   -9019.5901   -8933.3523    4558.3716      17420.9    7.1750258 
    3810       778.33   -9021.7354   -8934.9115    4094.5755    17410.031     7.181384 
    3820     746.8023   -9019.7945   -8936.4876     3173.793    17404.288    7.1898702 
    3830    747.88221   -9021.4489   -8938.0215    863.23467    17402.306    7.2010401 
    3840    771.84557   -9025.6943   -8939.5937   -1718.0342    17401.376    7.2211399 
    3850    781.76199   -9028.4951   -8941.2884    -2865.701     17398.61    7.2548725 
    3860    762.92886   -9028.1584   -8943.0526   -2876.2172    17392.688    7.2999874 
    3870    756.33969    -9029.207   -8944.8362   -3328.5569    17383.504    7.3541515 
    3880    747.22239   -9029.9585   -8946.6047   -3933.0214    17370.685    7.4206706 
    3890    765.80753   -9033.8076   -8948.3806    -4204.305    17353.709     7.501046 
    3900    780.78767   -9037.3298   -8950.2318   -3246.0058    17332.499     7.596128 
    3910    772.08303     -9038.23   -8952.1029   -1345.7716     17308.32    7.7038634 
    3920    783.93144   -9041.3915   -8953.9428    -311.2625    17283.315    7.8194119 
    3930    804.13394   -9045.5267   -8955.8243   -7.7405897    17258.764    7.9390154 
    3940    803.26272    -9047.383   -8957.7778    591.94185    17235.138    8.0590376 
    3950    791.78762   -9048.0641    -8959.739    1366.7004     17213.09    8.1765598 
    3960    800.07283   -9050.9498   -8961.7005    1917.9771    17193.407    8.2896202 
    3970    810.85842   -9054.1937   -8963.7412    2616.0542    17176.688    8.3984507 
    3980    785.90051   -9053.4744    -8965.806    3653.0051     17163.65    8.5080511 
    3990    777.13903   -9054.4851    -8967.794    4016.2328    17155.215    8.6168042 
    4000    790.42455   -9057.9413   -8969.7682    3342.9062    17151.581     8.717659 
    4010    786.12716   -9059.4607    -8971.767    1985.4859    17151.828    8.8064482 
    4020    752.46123   -9057.6579   -8973.7197    656.13532    17154.315    8.8857537 
    4030    740.78331   -9058.1848   -8975.5493    171.15733    17157.562    8.9595138 
    4040    766.93545   -9062.9105   -8977.3577   -530.09186    17160.861    9.0289303 
    4050    789.66547   -9067.3661   -8979.2778   -1614.1608    17163.371    9.0924506 
    4060     763.1951   -9066.3834   -8981.2478   -1847.6279    17164.077    9.1494399 
    4070    740.11749   -9065.7183   -8983.1571   -2202.8049    17162.614    9.1980303 
    4080    730.64192   -9066.4905   -8984.9863    -2005.174    17158.766    9.2342825 
    4090    738.69145   -9069.1747   -8986.7725   -1331.2818    17152.816    9.2588344 
    4100    753.60027   -9072.6462   -8988.5809   -810.89979    17145.516    9.2781241 
    4110    740.23536   -9072.9654    -8990.391    349.68245    17137.625    9.2954715 
    4120    736.69054   -9074.3302   -8992.1513    1808.0771    17130.417    9.3067895 
    4130    744.78825   -9076.9956   -8993.9133    2951.7342    17125.455    9.3081538 
    4140    731.33606   -9077.2367   -8995.6551    3781.2129    17123.988    9.2989777 
    4150    745.37483   -9080.5391   -8997.3914    3390.2432    17126.729    9.2826775 
    4160    756.05197   -9083.5381   -8999.1994    2664.3257     17133.23    9.2653617 
    4170    727.71897   -9082.1872   -9001.0091    2456.4567    17142.653    9.2507549 
    4180    727.44795   -9083.9103   -9002.7623     1086.233    17154.487    9.2389688 
    4190    736.53472   -9086.6559   -9004.4944   -736.21709    17167.199    9.2335229 
    4200    739.66033   -9088.7526   -9006.2424   -1725.3676    17178.785    9.2373626 
    4210    733.83591   -9089.8488   -9007.9883   -1399.7116    17188.213    9.2469928 
    4220    732.17028   -9091.4081   -9009.7334   -901.98459    17195.795    9.2525934 
    4230    713.36909   -9091.0283   -9011.4509   -635.54105    17202.127    9.2516887 
    4240    699.45352   -9091.1045   -9013.0794   -1145.5209    17207.466    9.2504976 
    4250    714.57835   -9094.3894   -9014.6771   -2070.9087    17211.316    9.2555757 
    4260    712.30378   -9095.7642   -9016.3056   -2066.8207    17212.792    9.2671516 
    4270     694.5889    -9095.387   -9017.9046   -939.14777    17211.988    9.2787401 
    4280    706.58816   -9098.2787   -9019.4577   -384.84003    17210.077    9.2836181 
    4290    725.83455   -9102.0091   -9021.0411    -964.7555    17207.642    9.2806407 
    4300    696.76798   -9100.3355     -9022.61   -1124.9426    17204.201     9.273891 
    4310    681.12086   -9100.0456   -9024.0655   -1483.0296    17199.528    9.2677057 
    4320    704.36132   -9104.0639   -9025.4913   -2043.3945    17193.234     9.267883 
    4330     710.9024   -9106.2742    -9026.972   -1316.1921     17184.89    9.2767671 
    4340    698.16637   -9106.3333   -9028.4518   -236.14719    17175.266    9.2925959 
    4350    708.81144   -9109.0044   -9029.9354    33.211858      17165.5    9.3151454 
    4360    709.91733   -9110.6321   -9031.4398    120.94232        17156    9.3424697 
    4370    706.78171   -9111.7976    -9032.955    240.90231    17146.885    9.3721227 
    4380    708.12019   -9113.4725   -9034.4806    504.03071     17138.29    9.4047322 
    4390    715.64162   -9115.8591   -9036.0282    1038.8135    17130.508    9.4411889 
    4400    723.79969   -9118.3651   -9037.6242    1511.6526     17124.05    9.4822299 
    4410     718.8969   -9119.4335   -9039.2395    2332.6793    17119.495    9.5283142 
    4420    737.91353   -9123.2271   -9040.9117    2702.5042    17117.642    9.5783149 
    4430    732.45448   -9124.3684    -9042.662    2959.9942    17118.922    9.6356629 
    4440    715.21998   -9124.2137   -9044.4299    2380.3234    17123.475     9.702624 
    4450    696.14273   -9123.7794   -9046.1236    1409.0049    17130.649    9.7746555 
    4460    689.69041   -9124.6437   -9047.7077    551.22969    17139.306    9.8428619 
    4470    692.84787   -9126.4805   -9049.1923   -247.33492    17148.423    9.9024369 
    4480    724.41692   -9131.4969   -9050.6871     -708.014    17157.066    9.9564008 
    4490    716.28573   -9132.1535   -9052.2508    168.94718    17164.859    10.011718 
    4500    686.72566   -9130.3827   -9053.7774    1157.7545    17172.722    10.066379 
    4510    678.40182   -9130.9061   -9055.2293    1282.2391    17181.643     10.11333 
    4520    669.81786   -9131.3445   -9056.6253     1310.822    17191.834    10.146201 
    4530    652.35334   -9130.7314   -9057.9604    1148.6062    17203.305    10.162629 
    4540    646.08252   -9131.2719   -9059.2004   -507.60602    17215.683     10.16704 
    4550    654.51085   -9133.3631   -9060.3515   -2080.3093    17227.238    10.166662 
    4560    654.13792   -9134.4172   -9061.4471   -3174.7086    17236.182    10.166094 
    4570    657.74275   -9135.8897   -9062.5175    -4573.389    17241.198    10.166513 
    4580     650.0317   -9136.0847   -9063.5726   -4829.5221     17240.95    10.170103 
    4590    647.21884   -9136.7889   -9064.5907   -4665.2669    17235.149    10.173174 
    4600    633.28049   -9136.2188   -9065.5754   -3890.1211    17224.178    10.169283 
    4610    618.90157   -9135.4994     -9066.46   -2920.2561     17209.01    10.156148 
    4620    637.75688   -9138.4349   -9067.2921    -1866.041    17190.852     10.13766 
    4630    609.11102   -9135.9962   -9068.0489    670.73512    17171.194    10.119124 
    4640    605.28805   -9136.2118    -9068.691    2045.8472    17152.679    10.099725 
    4650    618.04666   -9138.2161   -9069.2721    2083.4335     17136.85    10.079616 
    4660    598.54718   -9136.5605   -9069.7916    2355.1054     17123.85    10.060739 
    4670    606.46273   -9137.9033   -9070.2515    2504.7139    17113.861    10.042374 
    4680    609.00542   -9138.5764   -9070.6409    2536.0369     17106.96    10.025092 
    4690       611.76   -9139.1958   -9070.9531    1894.7548    17103.057    10.009632 
    4700    627.15707   -9141.1776   -9071.2173    974.03228    17101.399    9.9969019 
    4710     619.2597   -9140.5327   -9071.4534    667.07818     17100.94    9.9892896 
    4720      604.473   -9139.0726   -9071.6427    967.79776    17101.332    9.9871405 
    4730    627.46718   -9141.7733   -9071.7784   -336.76745    17102.625    9.9883089 
    4740    633.24823   -9142.5204   -9071.8806   -1469.9228    17103.548    9.9917574 
    4750      616.004     -9140.68   -9071.9639    -1578.961    17102.899    9.9959372 
    4760    610.88156   -9140.1632   -9072.0184   -1033.9367    17100.546    9.9985149 
    4770    581.34932   -9136.8459   -9071.9955    135.56344    17097.131    10.000561 
    4780    597.42802    -9138.521    -9071.877      395.292    17093.844    10.001237 
    4790    635.75041    -9142.591   -9071.6721   -398.80028    17090.968    9.9993562 
    4800    630.51607   -9141.7701   -9071.4351   -1097.8428    17087.695    9.9955124 
    4810     617.9923   -9140.1345   -9071.1965   -1546.4231    17083.265    9.9912874 
    4820    604.13219   -9138.3151   -9070.9233   -1577.2891    17077.219     9.987376 
    4830      605.524   -9138.1412   -9070.5941   -616.43598    17069.619    9.9818716 
    4840    614.85191   -9138.7763   -9070.1886     899.2802    17061.558    9.9743152 
    4850    630.64205   -9140.0767   -9069.7277    1317.7435    17054.575    9.9664628 
    4860    631.36154   -9139.6673    -9069.238    120.23469    17049.077    9.9606264 
    4870    642.64079   -9140.4364   -9068.7489   -1466.9194    17043.796    9.9591718 
    4880    646.16131   -9140.3522    -9068.272   -1412.2448    17037.135    9.9636563 
    4890    649.45355   -9140.2707   -9067.8232   -656.60041     17029.05    9.9728003 
    4900    659.01213    -9140.919   -9067.4052    69.379959    17020.377    9.9858027 
    4910    640.90592   -9138.5219   -9067.0279    1123.5964    17011.981    10.002256 
    4920    625.37574   -9136.4302   -9066.6686    2093.5556    17005.015    10.019408 
    4930    641.26617   -9137.8311   -9066.2969    1805.9418    17000.396    10.036448 
    4940    651.00044   -9138.5388   -9065.9187    1499.6648    16997.917    10.052332 
    4950    656.51627   -9138.8083   -9065.5729    1332.7406    16997.194     10.06499 
    4960    655.51248   -9138.3926   -9065.2692    986.33153    16997.975    10.078858 
    4970    651.13368   -9137.6373   -9065.0024    529.72709    16999.853    10.096545 
    4980    669.88653   -9139.4969   -9064.7701   -154.32453    17002.276     10.11363 
    4990    677.75568   -9140.2023   -9064.5976   -712.23504    17004.497    10.129993 
    5000    694.21298   -9141.9649   -9064.5244   -1321.4565     17005.87    10.148073 
Loop time of 1941.2 on 16 procs for 3000 steps with 864 atoms

Performance: 0.134 ns/day, 179.741 hours/ns, 1.545 timesteps/s
97.0% CPU use with 16 MPI tasks x 1 OpenMP threads

MPI task timing breakdown:
Section |  min time  |  avg time  |  max time  |%varavg| %total
---------------------------------------------------------------
Pair    | 465.77     | 1155.5     | 1911.9     |1511.0 | 59.53
Bond    | 0.0002327  | 0.0004393  | 0.0015097  |   0.0 |  0.00
Neigh   | 0.022078   | 0.054774   | 0.099629   |  11.0 |  0.00
Comm    | 11.945     | 579.33     | 1351.6     |1855.8 | 29.84
Output  | 0.21221    | 0.21711    | 0.28816    |   3.9 |  0.01
Modify  | 16.956     | 206.05     | 576.5      |1269.1 | 10.61
Other   |            | 0.01606    |            |       |  0.00

Nlocal:        54.0000 ave          85 max          23 min
Histogram: 3 2 1 2 0 2 0 2 0 4
Nghost:        553.000 ave         760 max         365 min
Histogram: 3 1 1 2 1 2 2 2 0 2
Neighs:         0.00000 ave           0 max           0 min
Histogram: 16 0 0 0 0 0 0 0 0 0
FullNghs:      3049.25 ave        5955 max         652 min
Histogram: 4 2 1 1 0 2 2 0 0 4

Total # of neighbors = 48788
Ave neighs/atom = 56.467593
Ave special neighs/atom = 0.0000000
Neighbor list builds = 300
Dangerous builds = 300
unfix   2

fix     3 all npt temp 637.5 637.5 $(100.0*dt) aniso 1.01325 1.01325 $(1000.0*dt)
fix     3 all npt temp 637.5 637.5 0.10000000000000000555 aniso 1.01325 1.01325 $(1000.0*dt)
fix     3 all npt temp 637.5 637.5 0.10000000000000000555 aniso 1.01325 1.01325 1
run     20000
Per MPI rank memory allocation (min/avg/max) = 8.894 | 8.912 | 8.921 Mbytes
Step Temp PotEng TotEng Press Volume c_msd[4] 
    5000    694.21298   -9141.9649   -9064.5244   -1321.4565     17005.87    10.148073 
    5010    708.22393   -9143.6109   -9064.6074   -1337.8999    17005.066     10.13916 
    5020    691.09519   -9141.9475   -9064.8548   -426.13006    17002.829    10.134464 
    5030    661.15345   -9138.9764   -9065.2238    515.84582    17000.099    10.134789 
    5040    650.14661   -9138.1703   -9065.6455    465.25071    16997.853    10.139573 
    5050    662.43716   -9139.9969    -9066.101   -252.40645    16996.094    10.148007 
    5060    670.16232   -9141.3709   -9066.6133   -1140.1335    16994.048    10.161828 
    5070    646.15627   -9139.2524   -9067.1727   -1500.4964    16990.738    10.185692 
    5080    618.65758   -9136.7041   -9067.6919   -1265.0616    16985.784    10.220881 
    5090    633.19475   -9138.7872   -9068.1534   -1678.0544    16979.303    10.265053 
    5100    635.94547   -9139.4981   -9068.5574   -968.13363    16971.028    10.318063 
    5110    652.66041   -9141.7194   -9068.9141    317.40299    16961.666    10.379234 
    5120    653.93789   -9142.1792   -9069.2314    2001.8403    16952.698    10.444127 
    5130    658.47626   -9142.9861   -9069.5321    3311.0424     16945.95    10.504201 
    5140    669.48453   -9144.5191   -9069.8371    3970.2951    16942.908    10.555818 
    5150    664.74446   -9144.3117   -9070.1584     3626.718    16944.274    10.595584 
    5160    648.41279   -9142.8128   -9070.4814    2634.8046    16949.687    10.620991 
    5170    621.52972   -9140.0905   -9070.7579    2104.4802    16958.137    10.633245 
    5180     607.0934   -9138.6717   -9070.9495    1332.6179    16968.964    10.632898 
    5190     626.2845   -9140.9175   -9071.0546   -514.18882    16981.196    10.621298 
    5200    642.49857   -9142.7913   -9071.1196   -1963.5983    16992.902    10.603027 
    5210    623.70474   -9140.7647   -9071.1895   -2580.4552    17002.477    10.582044 
    5220    613.42889   -9139.6738   -9071.2449   -3824.6741    17009.066    10.557707 
    5230     640.7254   -9142.7635   -9071.2896   -5416.5847    17011.268    10.530634 
    5240    628.85653   -9141.4861   -9071.3362   -4676.9465    17007.559      10.5035 
    5250    625.68932   -9141.1601   -9071.3636   -3243.8974    16998.555    10.476599 
    5260    649.21665   -9143.7857   -9071.3646    -2074.359    16985.841    10.447959 
    5270    653.59029   -9144.2828   -9071.3739   -747.29749    16970.808    10.417838 
    5280    667.97466   -9145.9387   -9071.4251     290.7243    16954.925    10.388504 
    5290    664.36824   -9145.6379   -9071.5266    668.21827    16939.304    10.362189 
    5300     621.3939   -9140.9495    -9071.632     2346.374    16924.649    10.338465 
    5310    608.03741   -9139.5016   -9071.6741    3614.0476    16912.639    10.313153 
    5320    637.73036   -9142.8016   -9071.6618    3994.4567    16904.665    10.283221 
    5330    662.53828   -9145.5841   -9071.6769     3811.253    16901.155    10.249506 
    5340    652.47248   -9144.5554   -9071.7712     3430.975    16901.906    10.216671 
    5350    640.58283   -9143.3873   -9071.9293    3368.0334    16906.563     10.18698 
    5360    627.13682   -9142.0658   -9072.1078    2709.4709    16914.951    10.161486 
    5370    637.90625   -9143.4454    -9072.286    1274.4268    16926.322    10.140225 
    5380    653.32345   -9145.3642   -9072.4849   -906.71204    16939.033    10.122824 
    5390    619.93448   -9141.8501   -9072.6955   -2489.3008    16950.788    10.109575 
    5400    610.00061   -9140.9182   -9072.8717   -4056.8315    16959.706    10.100393 
    5410    654.07878   -9145.9984   -9073.0349   -6085.5818    16963.942    10.096866 
    5420    660.45616   -9146.9386   -9073.2637   -6357.4575    16961.457    10.103032 
    5430      635.659   -9144.4892   -9073.5805   -4835.0471    16951.972    10.118523 
    5440    619.65942   -9143.0537   -9073.9297   -2713.9899    16937.132    10.138459 
    5450    617.46902   -9143.1335   -9074.2539   -626.61035    16919.312    10.159019 
    5460    637.53591   -9145.6931    -9074.575    552.52336    16900.761    10.175199 
    5470    659.76343   -9148.5578   -9074.9602    1642.0016    16882.897    10.181963 
    5480    646.52887   -9147.5668   -9075.4456    3855.1995    16867.078    10.178494 
    5490    617.04563   -9144.8104    -9075.978    6172.2038    16855.658    10.165069 
    5500    611.18013   -9144.7022   -9076.5242    7192.8231    16851.043    10.140864 
    5510    601.02877   -9144.0988   -9077.0531    7260.3302    16854.399    10.104917 
    5520    608.60026    -9145.437   -9077.5467    5891.0068    16865.725    10.054959 
    5530    625.39693   -9147.7682   -9078.0042    3487.5543    16883.514    9.9902682 
    5540    614.75282   -9146.9786    -9078.402    919.88498    16905.165    9.9146518 
    5550    585.29879   -9143.9693   -9078.6783   -2276.8787    16927.725     9.836954 
    5560    586.71657   -9144.2469   -9078.7977   -5463.1875    16947.655    9.7666281 
    5570    613.89041   -9147.2684    -9078.788   -7529.3275    16961.429    9.7129298 
    5580    618.75074   -9147.7522   -9078.7296   -7015.7827    16966.888    9.6828257 
    5590    610.08811   -9146.7278   -9078.6715   -5678.4971    16964.451    9.6729609 
    5600    609.58156    -9146.594   -9078.5943    -4928.343    16955.552    9.6766872 
    5610    600.53147   -9145.4644   -9078.4743   -3614.1151    16941.233     9.693743 
    5620    608.26395   -9146.1484   -9078.2957   -2344.9773     16922.96    9.7275263 
    5630    633.46408   -9148.7195   -9078.0556   -709.77946    16902.237    9.7793843 
    5640     611.6437   -9145.9668    -9077.737    1909.6441    16880.998    9.8463228 
    5650    604.42762   -9144.7487   -9077.3239    3437.8638    16861.975    9.9215394 
    5660    631.50102   -9147.2463   -9076.8014    4388.7667    16846.931    9.9970558 
    5670    630.09526   -9146.4924   -9076.2044    6074.1061    16837.032    10.065018 
    5680    629.51797   -9145.8229   -9075.5992     6754.221    16833.869    10.119986 
    5690    624.15756   -9144.6311   -9075.0054    6441.1582    16838.138    10.159792 
    5700    607.99992    -9142.271   -9074.4477    5989.1824    16849.561    10.184655 
    5710    635.99525   -9144.8698   -9073.9236    3245.3343    16867.293    10.196779 
    5720    652.51979   -9146.2257   -9073.4361   -260.98153    16888.406    10.201179 
    5730    629.07959   -9143.2131   -9073.0383   -2406.8735    16909.154    10.199756 
    5740    636.19456   -9143.6899   -9072.7214   -4323.5745    16926.962    10.190927 
    5750    641.05785   -9143.9797   -9072.4688   -5487.4046    16939.802    10.176982 
    5760    622.40417   -9141.7155   -9072.2853   -5984.5125    16946.385    10.162168 
    5770     644.4243   -9144.0418   -9072.1553   -6440.7829     16946.15    10.148197 
    5780     660.6302   -9145.7753    -9072.081   -4988.5023    16938.862    10.136119 
    5790    651.83158   -9144.7749   -9072.0621   -2048.1517    16926.238    10.126733 
    5800    656.96348   -9145.3561   -9072.0708   -216.86414    16911.359    10.119354 
    5810    657.07983   -9145.4009   -9072.1026     1397.109    16896.394    10.113195 
    5820     639.1397    -9143.446    -9072.149    3506.0031    16883.255    10.108453 
    5830    640.85819   -9143.6879   -9072.1992    4363.1078    16874.077     10.10315 
    5840    652.64683   -9145.0733   -9072.2696    3737.6575    16869.741    10.095212 
    5850    648.12397   -9144.6745   -9072.3753    2723.2271    16869.613    10.084728 
    5860     644.9483   -9144.4518   -9072.5069    997.85033    16872.464    10.072669 
    5870    650.27576    -9145.198   -9072.6587   -851.44978    16876.417    10.064119 
    5880    652.23932   -9145.6035   -9072.8452   -2212.9781     16879.42    10.064346 
    5890    640.48287   -9144.5094   -9073.0625   -2471.8612    16880.051    10.072872 
    5900    628.31979   -9143.3764   -9073.2864   -2402.7292    16877.931    10.086541 
    5910    641.04782   -9145.0126   -9073.5028    -1767.498      16873.2    10.104588 
    5920    650.09676   -9146.2457   -9073.7265    32.079212    16866.673    10.125383 
    5930      642.893   -9145.6773   -9073.9616    1709.9933    16860.258    10.140821 
    5940    648.13372   -9146.5222   -9074.2219    2215.4537    16855.722    10.147439 
    5950    656.97504   -9147.8199   -9074.5333     1863.953    16853.617    10.151425 
    5960    642.74343   -9146.5935   -9074.8945    1511.9927    16853.627    10.156572 
    5970    632.06848   -9145.7819   -9075.2738     933.9514    16855.304    10.162521 
    5980     637.3313   -9146.7489   -9075.6536    48.350727    16857.998    10.168206 
    5990    641.12084   -9147.5571   -9076.0391   -772.07983    16860.755    10.174354 
    6000    642.36366   -9148.0741   -9076.4174   -1720.4082    16862.606    10.181607 
    6010    643.61222    -9148.572   -9076.7761   -2729.9311    16862.514    10.190635 
    6020    643.24938   -9148.8823   -9077.1268    -3521.673    16859.414     10.20323 
    6030     644.6333   -9149.3944   -9077.4846   -2775.3556    16852.617    10.221098 
    6040    641.12745   -9149.3626   -9077.8439   -1287.5155    16842.881    10.242448 
    6050    627.84204   -9148.2333   -9078.1966    50.865955    16831.819    10.264741 
    6060    630.69309   -9148.8932   -9078.5385    548.41182    16820.856    10.287223 
    6070    635.24175   -9149.7312    -9078.869    1247.9003    16810.654    10.311189 
    6080    625.09926   -9148.8985   -9079.1677    2146.0109    16801.981    10.335558 
    6090    619.71832   -9148.5534   -9079.4229    2021.3346    16795.668    10.358944 
    6100    625.96359   -9149.4538   -9079.6266    1976.3647    16791.687    10.378831 
    6110    635.51195   -9150.6847   -9079.7924    1071.3183    16789.839    10.394238 
    6120    636.45156   -9150.9206   -9079.9234    -446.8627    16789.143    10.411561 
    6130    639.93883   -9151.4105   -9080.0244   -1376.3979    16788.018    10.431658 
    6140    638.17591   -9151.2981   -9080.1087    -1356.023     16785.48    10.450809 
    6150     635.2497   -9151.0408   -9080.1778   -879.91801    16781.551    10.470885 
    6160    630.13199   -9150.5284   -9080.2362   -850.62283     16776.67    10.496488 
    6170    630.06456    -9150.572   -9080.2873   -1589.2383    16770.853     10.52719 
    6180    644.70931   -9152.2797   -9080.3614   -2655.2337    16763.339    10.561156 
    6190    632.50135   -9151.0219   -9080.4654   -2052.1127     16753.21    10.599859 
    6200    633.43661   -9151.2385   -9080.5777   -1340.8468    16740.961    10.641449 
    6210    635.89808   -9151.6054   -9080.6701   -484.99335    16727.451    10.684653 
    6220    639.97921   -9152.1286    -9080.738    375.41633    16713.626    10.729547 
    6230    651.01372   -9153.4322   -9080.8107    1290.4143    16700.415    10.778072 
    6240    628.97579    -9151.052   -9080.8888    2916.1293    16688.895    10.832077 
    6250    618.65828   -9149.9626   -9080.9503     4152.648    16680.688    10.888255 
    6260    629.34075   -9151.1836   -9080.9797    5011.0937    16677.078    10.942164 
    6270    651.62152   -9153.6998   -9081.0104     5470.403    16678.928    10.987269 
    6280    646.12055   -9153.1555   -9081.0798     5131.672    16686.635    11.018038 
    6290    636.78125   -9152.2242   -9081.1903    3353.1943    16699.693    11.036295 
    6300    641.79056   -9152.8968   -9081.3041    458.77164    16716.081    11.049122 
    6310    642.07796   -9153.0456   -9081.4209   -1522.3873    16732.802    11.064775 
    6320    625.45395   -9151.3215   -9081.5511   -2653.8583    16747.654    11.087679 
    6330    617.14604   -9150.5182   -9081.6747   -3712.6106    16759.354    11.117666 
    6340    648.77354   -9154.2002   -9081.8285   -4931.0675     16766.75     11.15226 
    6350    649.59336   -9154.5439   -9082.0808   -4573.0083    16768.767    11.189078 
    6360    638.68615   -9153.7112   -9082.4647   -3502.7273    16765.777    11.221814 
    6370    619.93763   -9152.1033   -9082.9483   -2222.0316    16759.028    11.248119 
    6380    613.01417   -9151.8485   -9083.4658   -1143.7181    16749.948     11.27328 
    6390     636.5867   -9155.0239   -9084.0117   -859.23822     16739.69    11.300543 
    6400    627.92868   -9154.6253   -9084.5789   -541.70965    16728.681    11.331776 
    6410    600.71908    -9152.116   -9085.1049   -127.25961    16717.303    11.365608 
    6420    610.30645   -9153.6257   -9085.5451   -260.22696    16705.956    11.397633 
    6430    659.55759   -9159.5413   -9085.9666   -277.38102    16694.536    11.427853 
    6440    657.55865   -9159.7634   -9086.4117    1633.1309    16683.246    11.460055 
    6450    643.97841   -9158.7085   -9086.8718    2996.8768    16673.881    11.492057 
    6460    614.37353   -9155.8387   -9087.3044    3546.9948    16667.901    11.517971 
    6470    581.55856   -9152.5143   -9087.6406    3423.0954    16665.826    11.534813 
    6480    605.29225   -9155.3906   -9087.8694    2106.5583    16667.397    11.545803 
    6490    629.00942    -9158.195   -9088.0281    406.88278    16671.202    11.558621 
    6500    619.28321   -9157.2274   -9088.1454   -780.06505    16675.437    11.579575 
    6510    625.42555   -9158.0004   -9088.2332   -1801.8951     16678.77    11.609752 
    6520    623.80251   -9157.8806   -9088.2944    -2321.429    16680.145    11.646226 
    6530    617.81448   -9157.2464   -9088.3283   -2424.1203    16679.023    11.685176 
    6540    628.16597   -9158.4051   -9088.3323   -2943.1965    16675.205    11.726468 
    6550     619.0558    -9157.365   -9088.3084   -2219.8642    16668.395    11.772739 
    6560    604.38429   -9155.6544   -9088.2345   -980.41515    16659.358     11.82377 
    6570    632.41825   -9158.6465   -9088.0992   -959.66716    16649.284    11.876681 
    6580    653.58711   -9160.8433   -9087.9347   -234.04851    16638.449      11.9283 
    6590    629.65224   -9158.0149   -9087.7762    1001.7115    16627.584     11.97389 
    6600    621.17032   -9156.8982   -9087.6057    924.83945    16617.832     12.00916 
    6610    634.46395   -9158.1775   -9087.4021    551.79345    16609.188     12.03366 
    6620    627.75295   -9157.1878    -9087.161    2360.9797    16601.511    12.050867 
    6630    641.12563   -9158.4092   -9086.8907    4287.1905    16596.484    12.063181 
    6640    653.61007   -9159.5222    -9086.611    5436.0512     16596.09     12.06962 
    6650    648.31435   -9158.6848   -9086.3643    5821.6851    16601.518    12.068985 
    6660    660.96324    -9159.887   -9086.1556    4298.4315    16612.961    12.063152 
    6670    655.86453   -9159.1337    -9085.971    2484.1447    16628.901    12.057319 
    6680    629.89674   -9156.0669    -9085.801    1042.9874    16647.391    12.053259 
    6690     626.4599    -9155.479   -9085.5965   -721.25597    16666.769    12.051342 
    6700    631.20969   -9155.7406   -9085.3282   -2512.0501    16685.118    12.053181 
    6710    627.53796   -9155.0128     -9085.01   -4090.0584    16700.513     12.06048 
    6720    618.74028   -9153.6646   -9084.6432   -5252.4278      16711.3    12.075959 
    6730    630.69274   -9154.5823   -9084.2275   -6209.2925    16716.224    12.098927 
    6740    633.68921   -9154.4578   -9083.7688   -6333.8286    16714.383     12.12644 
    6750    641.44127   -9154.8511   -9083.2974   -5787.6947    16705.689    12.155933 
    6760     641.0744   -9154.3343   -9082.8215   -5145.6676    16690.799    12.186821 
    6770    642.91606   -9154.0803    -9082.362   -4257.1527    16670.524    12.221521 
    6780    630.92177   -9152.2801   -9081.8998   -1681.5447     16646.09    12.264975 
    6790    632.94311   -9152.0111   -9081.4054    1159.7655    16620.217    12.320874 
    6800    660.40223   -9154.5612   -9080.8924    2793.3267    16595.861    12.383465 
    6810    653.76319   -9153.3558   -9080.4275    4262.8382    16574.902    12.441954 
    6820    647.79646   -9152.3084   -9080.0457    5258.9683    16558.823    12.488585 
    6830    667.26112   -9154.1806   -9079.7466    5890.8051    16548.608    12.523184 
    6840    674.08806   -9154.7563   -9079.5607    5965.5938    16544.788    12.549925 
    6850    651.62137    -9152.183   -9079.4936    5352.9046    16547.371    12.571944 
    6860    645.55818   -9151.5004   -9079.4874    3029.4001    16555.491    12.591768 
    6870    666.43621   -9153.8348   -9079.4929   -344.53443    16566.632    12.611256 
    6880    678.66489   -9155.2396   -9079.5335   -2474.8365    16577.401    12.630221 
    6890    673.54734   -9154.7776   -9079.6424   -3037.6951    16585.542    12.649266 
    6900    681.43682   -9155.8444   -9079.8291   -3537.1526    16590.295    12.673368 
    6910    676.00848   -9155.5085   -9080.0987   -2646.2218    16591.303    12.709667 
    6920    638.83286   -9151.6588    -9080.396    -374.5727     16589.59    12.756078 
    6930     632.4803   -9151.2211    -9080.667    662.53909    16587.364    12.803153 
    6940    640.13814   -9152.3113   -9080.9029    1294.4825    16585.835    12.845114 
    6950    648.92861   -9153.5072   -9081.1182    1785.3721    16585.716    12.881121 
    6960    680.97503   -9157.3164   -9081.3526    958.47316    16587.402    12.913305 
    6970     673.8658   -9156.8092   -9081.6385   -115.61079    16590.102    12.944709 
    6980     647.4528   -9154.1747   -9081.9504   -1134.3815    16592.688    12.973717 
    6990    650.46075   -9154.8129    -9082.253   -2650.9251    16593.971    12.998028 
    7000    629.34541    -9152.729   -9082.5246   -2601.0716    16592.548    13.019571 
    7010    610.58885   -9150.8431    -9082.731   -1617.9701     16588.43    13.038554 
    7020    640.16684   -9154.3003   -9082.8887   -975.72315    16582.562     13.05437 
    7030    643.64912   -9154.8268   -9083.0268    581.99749    16575.822     13.06872 
    7040    640.46526   -9154.6087   -9083.1638    1667.8561     16569.72    13.076313 
    7050    656.81272   -9156.5869   -9083.3184    1867.3828    16565.369    13.073305 
    7060     628.9121   -9153.6363   -9083.4802    2559.4384    16563.117    13.059748 
    7070    625.43996   -9153.3904   -9083.6216    2853.3212    16563.617    13.032799 
    7080    642.80107   -9155.4438   -9083.7384    1927.2878    16567.068    12.994962 
    7090    636.65936   -9154.8691   -9083.8488    1044.2363    16572.568    12.955052 
    7100    640.91599   -9155.4625   -9083.9673    448.16346    16579.177    12.921466 
    7110    645.31851   -9156.0843    -9084.098   -15.813947    16586.237      12.8954 
    7120    640.64806   -9155.7022    -9084.237   -573.96456    16593.212    12.871856 
    7130    637.17807   -9155.4444   -9084.3663   -937.50358    16599.518     12.84911 
    7140    636.65533   -9155.4967   -9084.4768   -792.61835    16604.802    12.829742 
    7150    642.25729   -9156.2275   -9084.5828   -722.07108    16609.186    12.814126 
    7160    645.13772   -9156.6719   -9084.7058   -1481.4441    16612.687    12.802386 
    7170    630.92434   -9155.2295    -9084.849    -2183.601    16614.575    12.797072 
    7180    623.91695   -9154.5904   -9084.9915    -2344.708    16614.142    12.801818 
    7190    634.85452   -9155.9434   -9085.1244   -1627.5822    16611.262    12.819107 
    7200    633.66155   -9155.9393   -9085.2534    110.90784     16606.74    12.850909 
    7210    630.97352   -9155.7594   -9085.3733    1995.1966    16602.388    12.895959 
    7220    644.92515   -9157.4303   -9085.4879    3081.2673    16600.177    12.949761 
    7230    651.00206   -9158.2547   -9085.6345    2773.1604    16601.194    13.007049 
    7240    639.56607   -9157.1719   -9085.8274    1683.0437    16605.156    13.061283 
    7250    625.86077   -9155.8573   -9086.0416    506.49264    16610.938    13.104899 
    7260    639.26038   -9157.5807   -9086.2702   -832.81379    16617.203     13.13315 
    7270    644.88924   -9158.4786   -9086.5403   -1400.5706    16622.608    13.151019 
    7280    626.52162   -9156.7562   -9086.8668   -842.51708    16626.579    13.167331 
    7290     618.2825   -9156.1978   -9087.2275   -423.39183      16629.6    13.185576 
    7300     632.4659     -9158.18   -9087.6275   -912.13187     16632.06    13.203249 
    7310     621.8408   -9157.4427   -9088.0754   -922.92905    16633.572    13.215911 
    7320    604.44326   -9155.9683   -9088.5417   -411.72379     16634.12    13.218796 
    7330    614.29777   -9157.5319   -9089.0061    -19.38423    16634.217    13.210955 
    7340    611.96159   -9157.7404   -9089.4752    -335.1033    16634.232     13.19482 
    7350    600.94946   -9156.9558    -9089.919   -1640.9915    16633.798    13.175477 
    7360    617.86378   -9159.2618   -9090.3381   -3030.0699    16631.557    13.160926 
    7370    602.88911   -9157.9672    -9090.714   -2321.9786    16626.265    13.158217 
    7380    589.68424   -9156.7944   -9091.0142   -1058.7232    16618.513    13.168215 
    7390    595.68844   -9157.6698   -9091.2198   -356.28545    16609.565     13.18639 
    7400    611.05029   -9159.5168   -9091.3532    57.032093    16600.223    13.207064 
    7410    620.94975   -9160.7018   -9091.4339    1224.7322    16591.073    13.224575 
    7420    627.44776   -9161.4719   -9091.4791    2856.1255    16583.297     13.23394 
    7430    621.50043   -9160.8239   -9091.4946    4907.6785    16578.699    13.230439 
    7440    609.76094   -9159.5052   -9091.4854    5635.5468    16579.305    13.210064 
    7450    611.38137   -9159.6403   -9091.4398    4611.3128    16585.855    13.174792 
    7460    620.35401   -9160.5442   -9091.3428    2797.8558    16597.313    13.131212 
    7470    607.73206   -9158.9671   -9091.1737    1243.0561    16611.809    13.083078 
    7480    602.77423   -9158.1461   -9090.9058   -82.126996    16627.653    13.034769 
    7490    608.03345     -9158.33   -9090.5029   -1183.1546    16643.423    12.991946 
    7500    622.20789    -9159.373   -9089.9648   -2353.3497    16657.876    12.957066 
    7510    633.41279   -9159.9782   -9089.3201   -3407.4569    16669.745    12.929599 
    7520    628.60569   -9158.7471   -9088.6251   -3813.2308    16677.931    12.908414 
    7530     616.0118   -9156.6381   -9087.9211   -4022.3201    16681.972    12.893249 
    7540    612.22272   -9155.5225   -9087.2282   -4998.6612    16681.512    12.883828 
    7550    619.32815   -9155.6572   -9086.5702   -5725.7757    16675.617    12.884063 
    7560    643.20851   -9157.7441   -9085.9932   -5480.8345    16663.558     12.89984 
    7570    632.88994    -9156.129   -9085.5292   -3222.9617    16645.723    12.931935 
    7580    599.61225   -9152.0218   -9085.1342    452.62833    16624.528     12.97208 
    7590    628.42464   -9154.8315   -9084.7298    3742.0647    16603.818    13.005471 
    7600    664.18115   -9158.4277   -9084.3373    6500.3622     16587.17     13.02205 
    7610     665.2609   -9158.2635   -9084.0526    8585.1105    16577.545    13.022124 
    7620    665.07035   -9158.1026    -9083.913     8779.063    16577.046    13.012297 
    7630    656.08348   -9157.0794   -9083.8923    6986.9739    16585.868    12.998414 
    7640    638.95673   -9155.2028   -9083.9262    4285.7382    16602.202    12.980868 
    7650    636.83042   -9154.9854    -9083.946     1063.141    16623.157    12.958672 
    7660    635.39178   -9154.7956   -9083.9167   -2065.2632    16645.293    12.933364 
    7670     642.9451   -9155.5781   -9083.8567   -3916.6886    16665.316    12.909101 
    7680    658.78086   -9157.3056   -9083.8176   -4570.8077     16681.17    12.888389 
    7690    641.76578    -9155.416   -9083.8261   -4503.7203    16692.084    12.873364 
    7700    628.30039   -9153.9572   -9083.8693   -4617.0728    16698.019    12.869537 
    7710    630.66698   -9154.2627   -9083.9109   -4955.8588    16698.876    12.882837 
    7720     643.6486   -9155.7569   -9083.9569   -5807.6214    16694.222    12.912963 
    7730    645.22865    -9156.003   -9084.0268   -6073.2707    16683.272    12.958637 
    7740    662.27223   -9158.0154   -9084.1379   -5410.3126     16665.78    13.017976 
    7750    661.25187   -9158.0662   -9084.3026   -3187.1161    16642.557    13.085746 
    7760    632.12047   -9154.9904   -9084.4764    455.25374     16616.05    13.153014 
    7770    635.31554   -9155.4712   -9084.6008    3428.3642    16590.056    13.208711 
    7780    676.00345   -9160.1558   -9084.7466    4218.8894    16567.647    13.250421 
    7790    654.20767   -9157.9547   -9084.9768    4944.1044    16549.879    13.283789 
    7800    632.72725   -9155.8361   -9085.2544     5827.055    16537.534    13.311377 
    7810    660.14666    -9159.215   -9085.5746     4962.663    16531.329    13.329821 
    7820    669.54769   -9160.6702   -9085.9811    3285.2028    16530.421    13.334537 
    7830    654.27393   -9159.4553   -9086.4701    2003.4256    16533.109    13.324726 
    7840    632.83281   -9157.5707   -9086.9773    1367.3322     16538.01    13.304186 
    7850     618.8218   -9156.4805     -9087.45    579.53243    16544.363    13.278606 
    7860    637.45795   -9158.9829   -9087.8735   -922.97444    16551.274    13.252148 
    7870    657.51809   -9161.6443   -9088.2972   -2484.3758    16557.166    13.227025 
    7880    629.45524   -9158.9334   -9088.7167   -2580.5926    16560.534    13.204877 
    7890    616.87257   -9157.9017   -9089.0886   -2483.7883    16561.125    13.184719 
    7900    619.50924   -9158.5004   -9089.3932   -2263.1588    16559.045    13.165776 
    7910    622.36819   -9159.0703   -9089.6442   -1628.3753     16554.56    13.153113 
    7920    622.55842   -9159.2964    -9089.849   -781.83463    16548.329    13.153386 
    7930    620.09845   -9159.1843   -9090.0114    309.69876    16541.266    13.167427 
    7940    611.52589   -9158.3366   -9090.1199    1457.0299    16534.575    13.191254 
    7950    633.18481   -9160.8119   -9090.1792    1208.1408    16529.309    13.222505 
    7960    647.64651   -9162.4718   -9090.2258    1131.6415    16525.371    13.259444 
    7970    616.86799   -9159.0724   -9090.2598     2157.791    16522.787    13.297212 
    7980    629.72919   -9160.4997   -9090.2525    1656.0637    16522.382    13.331162 
    7990    667.19501   -9164.6543   -9090.2277   -306.60453    16523.617    13.361087 
    8000    641.42031   -9161.7872   -9090.2358   -799.73822    16524.678    13.390341 
    8010    621.42693   -9159.5811     -9090.26   -523.44328    16524.977     13.42074 
    8020    650.51835   -9162.8492   -9090.2829    -1388.769     16524.56    13.453118 
    8030    642.92628   -9162.0434    -9090.324   -1428.6618    16522.733    13.489524 
    8040    610.37587   -9158.4525   -9090.3642   -745.84775    16519.449    13.529614 
    8050    616.88586   -9159.1696    -9090.355    -880.9995    16515.262    13.570611 
    8060    629.70849   -9160.5438   -9090.2989   -1047.0577    16510.112    13.609593 
    8070    618.83674   -9159.2407   -9090.2085     -452.597    16503.942    13.642489 
    8080    655.88085   -9163.2712   -9090.1067    -1027.107    16497.161    13.665558 
    8090    666.79474    -9164.415   -9090.0331   -1519.6293    16489.267    13.680533 
    8100    641.60885   -9161.5852   -9090.0127    -929.1207    16479.842    13.691574 
    8110    650.39478   -9162.5718   -9090.0193    65.257076    16469.449    13.702411 
    8120     649.7528   -9162.5341   -9090.0532    1693.6819    16459.166    13.717724 
    8130    612.47781   -9158.4188    -9090.096    4093.5175    16450.778    13.738708 
    8140    608.37936   -9157.9722   -9090.1066    5226.5519    16446.611     13.76094 
    8150    625.71682   -9159.8637   -9090.0641    4910.5654    16447.882    13.781588 
    8160    612.96029   -9158.3365   -9089.9599    3827.0462    16454.341    13.798675 
    8170    606.27086   -9157.3956   -9089.7652    2138.7863    16464.855    13.805618 
    8180    612.16864   -9157.7072   -9089.4188    107.34796    16477.657    13.799227 
    8190     630.3067   -9159.2095   -9088.8978   -1567.2697    16490.666    13.785337 
    8200    639.08623   -9159.5183   -9088.2273   -2785.7975    16502.086    13.769163 
    8210    631.50968   -9157.9141   -9087.4683   -3939.4301    16510.578    13.753644 
    8220    653.18676   -9159.5326   -9086.6686   -5020.3572    16514.857    13.739252 
    8230     638.2094   -9157.0905   -9085.8972   -4637.5269    16513.895    13.725997 
    8240    623.63183   -9154.7833   -9085.2162    -3651.172    16507.986     13.71334 
    8250    653.09082   -9157.4415   -9084.5882   -1922.1572    16498.193    13.702423 
    8260    678.33108   -9159.7032   -9084.0344    321.25466    16486.372    13.694032 
    8270     681.9534   -9159.6892   -9083.6163    1600.2983    16474.754    13.684831 
    8280    681.25874   -9159.3434   -9083.3479       2210.1    16464.754    13.669777 
    8290    678.94931   -9158.9447   -9083.2069    1967.7311    16457.022    13.644212 
    8300    673.14662   -9158.2665    -9083.176    946.34399    16451.294    13.610789 
    8310    664.51102   -9157.3594   -9083.2322     494.3202    16446.651    13.579179 
    8320    665.53034    -9157.595   -9083.3541   -291.63956    16442.501    13.557019 
    8330     667.1336   -9157.9597   -9083.5399   -1437.1402    16437.995    13.545699 
    8340    659.55318   -9157.3572    -9083.783   -2496.6846    16431.924     13.54136 
    8350    661.74008   -9157.8911    -9084.073   -1774.6682    16423.346    13.538199 
    8360    660.75358   -9158.1107   -9084.4027    577.02334    16412.999    13.532759 
    8370    666.71453   -9159.1518   -9084.7788    2412.6312    16403.175    13.527507 
    8380    664.23105   -9159.3124   -9085.2164    2955.3282    16395.751    13.526609 
    8390    654.92073   -9158.7605   -9085.7031    2480.2987    16391.335    13.533953 
    8400    652.69184   -9159.0208   -9086.2121     1462.405    16389.511    13.553764 
    8410    651.95207   -9159.4564   -9086.7302   -82.317436    16389.198    13.586457 
    8420    637.18737   -9158.2969   -9087.2177   -1328.7347     16388.84     13.62627 
    8430     646.2393   -9159.7532   -9087.6643   -1808.7774    16387.118    13.670525 
    8440    648.65864   -9160.4458    -9088.087   -671.64334    16383.626    13.720105 
    8450    620.22132   -9157.6413   -9088.4547    1223.4258     16379.51    13.772126 
    8460    633.76125   -9159.4667   -9088.7697    1227.8331    16376.489    13.819391 
    8470    656.90877    -9162.355   -9089.0758   -209.67406    16374.614    13.862924 
[...]
   22890    647.62006    -9211.702    -9139.459    4436.6588    15935.055    20.361996 
   22900    624.47691   -9209.1545   -9139.4931    5406.1705    15929.302    20.383625 
   22910    631.33356   -9209.9517   -9139.5255    5486.3996    15928.866    20.382055 
   22920    653.32523   -9212.4506   -9139.5712    4821.9441    15933.855    20.353022 
   22930    648.85977   -9212.0331   -9139.6518    2953.4925    15943.567    20.300052 
   22940    634.81468   -9210.5599   -9139.7454     390.3534    15956.226    20.235745 
   22950    633.93657   -9210.5318   -9139.8152   -2128.9085    15969.324     20.17909 
   22960    638.13864   -9211.0449   -9139.8596   -4121.1744     15980.35    20.147088 
   22970    642.40802   -9211.5629   -9139.9014   -5172.5019    15987.365    20.147764 
   22980    649.13073   -9212.3745    -9139.963   -5396.0667    15989.271    20.178033 
   22990    640.87797    -9211.541   -9140.0501   -4364.1933    15985.863    20.226707 
   23000    634.75666   -9210.9624   -9140.1543   -2407.9389    15978.119    20.282353 
   23010    633.36328   -9210.9023   -9140.2496   -991.24526    15967.868    20.340135 
   23020    649.10123   -9212.7539   -9140.3457   -369.99052    15956.539     20.40217 
   23030    647.39416   -9212.6715   -9140.4537    301.34325    15944.854    20.467642 
   23040    640.11892   -9211.9808   -9140.5745    168.08468    15933.398    20.527588 
   23050    652.38364   -9213.4945   -9140.7201   -615.39865     15922.03    20.579796 
   23060    648.77424   -9213.2809   -9140.9092    343.10578    15910.219    20.629433 
   23070    625.04678   -9210.8337   -9141.1088    2094.4028    15898.812    20.676588 
   23080    632.39849   -9211.8488   -9141.3038    3411.8525    15889.438    20.715897 
   23090    612.99544    -9209.858   -9141.4775    4702.8012    15883.464    20.741916 
   23100    609.59793   -9209.6208   -9141.6192    4433.9848    15882.009    20.750465 
   23110    648.46065   -9214.0883   -9141.7515    2939.1327    15884.859    20.743964 
   23120    645.26937   -9213.8844   -9141.9036    2643.6741     15890.77    20.725366 
   23130    639.35884    -9213.403   -9142.0815    2169.6647    15899.335    20.691078 
   23140    641.15153   -9213.7809   -9142.2595    162.97305    15909.983    20.642734 
   23150    636.58938     -9213.44   -9142.4275    -2076.668    15920.822    20.592395 
   23160     638.8224    -9213.861   -9142.5994   -3347.0032    15929.698    20.549891 
   23170    641.73929   -9214.3795   -9142.7925    -3987.238    15935.259    20.521457 
   23180    633.73141   -9213.7178   -9143.0241   -3578.4612    15936.945    20.509219 
   23190    621.26789   -9212.5694    -9143.266   -3262.9951    15935.052    20.505097 
   23200    631.96848   -9214.0166   -9143.5196   -3544.3008    15929.822    20.505557 
   23210     624.4218   -9213.4491   -9143.7939   -3681.4053    15921.017    20.519736 
   23220    608.86415    -9211.998   -9144.0783   -2401.3118     15908.63    20.553374 
   23230    599.44057   -9211.1922   -9144.3237   -652.20277    15893.841    20.602208 
   23240    607.77725   -9212.2773   -9144.4788    655.71791    15878.321    20.657824 
   23250    647.60544   -9216.8129   -9144.5716     1861.476    15863.388    20.713894 
   23260    646.11932   -9216.7334   -9144.6579    3971.8148    15850.365    20.764041 
   23270    620.97631    -9214.021   -9144.7502    6020.5365    15841.277    20.801737 
   23280    637.01317   -9215.9116   -9144.8518     6137.096    15837.962     20.82569 
   23290    625.53387   -9214.7407   -9144.9614    5054.4095     15840.63    20.843151 
   23300    617.77709   -9213.9942   -9145.0802    2931.1148    15848.196    20.859409 
   23310     616.3811   -9213.9334   -9145.1751    628.00465    15858.691    20.874695 
   23320    631.60703   -9215.7029   -9145.2462   -1491.7177    15869.861    20.890049 
   23330    627.97905   -9215.3573   -9145.3053   -2140.6451    15879.719    20.908048 
   23340    603.18995   -9212.6228    -9145.336   -2118.8273    15887.526    20.928838 
   23350    610.95975   -9213.4693   -9145.3159   -3113.0159    15893.125    20.948102 
   23360    607.19225   -9212.9598   -9145.2266   -3147.4697    15895.748    20.958485 
   23370    617.32654   -9213.9401   -9145.0764   -2287.6275    15895.315    20.954917 
   23380    626.15438   -9214.7026   -9144.8541   -1157.7641     15892.61    20.938649 
   23390    623.07847   -9214.0632   -9144.5578    693.91841    15888.818    20.917548 
   23400    620.91988   -9213.4523   -9144.1878    1590.9802    15885.586    20.900523 
   23410    611.98322   -9212.0144   -9143.7468    964.72833     15883.77    20.891924 
   23420    621.85382   -9212.6029   -9143.2342   -482.60293     15882.82    20.894208 
   23430    630.29044     -9212.97   -9142.6602   -917.25531    15881.499    20.908637 
   23440    628.34842   -9212.1585   -9142.0653   -243.29212    15879.355    20.932244 
   23450    651.63927   -9214.1665   -9141.4751    387.66808    15876.923    20.956792 
   23460    650.20108   -9213.4564   -9140.9255    1491.8384    15874.918    20.974756 
   23470     635.2205   -9211.3182   -9140.4584    1976.2784    15874.326    20.982765 
   23480    643.90402     -9211.88   -9140.0515    1517.4384    15875.616     20.98579 
   23490    643.65102   -9211.4901   -9139.6899    1156.3578     15878.45    20.990102 
   23500    652.18564   -9212.1296   -9139.3773    694.91038    15882.458    20.990258 
   23510       658.87   -9212.6075   -9139.1096    308.08855    15887.183    20.983677 
   23520    645.90659   -9210.9444   -9138.8925    124.86425    15892.291    20.977253 
   23530    655.12808   -9211.8081   -9138.7276   -1091.0927    15897.471    20.976302 
   23540    659.80923    -9212.217   -9138.6143   -2412.9986    15901.598    20.981832 
   23550    653.01316   -9211.4183   -9138.5737   -2892.8818    15903.409    20.990675 
   23560    628.55068   -9208.6808    -9138.565   -2056.5534    15902.479    20.997419 
   23570    657.53785   -9211.9045   -9138.5551   -1968.5656    15899.408    20.998783 
   23580    664.74721   -9212.7288   -9138.5753   -1022.1536    15894.447    21.000376 
   23590    630.11906   -9208.9222   -9138.6314   -82.037181    15888.408    21.008938 
   23600     659.4153   -9212.2619   -9138.7031   -1006.9064    15882.064    21.026684 
   23610    669.17062   -9213.4615   -9138.8145   -1680.9453    15874.676    21.058357 
   23620    646.46927    -9211.096   -9138.9814    -650.6544      15865.7    21.109292 
   23630    663.18958   -9213.1758    -9139.196    126.46117    15855.964    21.177957 
   23640    664.85228   -9213.6358   -9139.4705    535.50602    15846.209    21.259534 
   23650    651.67414   -9212.5037   -9139.8084    1962.2112    15836.998    21.349938 
   23660    633.00165   -9210.7836   -9140.1713    3237.1316    15829.643    21.440278 
   23670    630.35206   -9210.8521   -9140.5354    2751.5438    15825.269    21.520018 
   23680    642.43501   -9212.5626    -9140.898    1924.6151    15823.575    21.585974 
   23690    658.51332   -9214.7449   -9141.2867    1778.7853    15823.841    21.639861 
   23700    661.57832   -9215.5339   -9141.7338    1707.2444    15825.886    21.686448 
   23710    640.56653   -9213.6675   -9142.2113    1126.2309    15829.595    21.733405 
   23720    636.95129   -9213.7145   -9142.6616    25.743525    15834.425    21.783305 
   23730    658.27367   -9216.5288   -9143.0974   -1613.3579    15839.287    21.829582 
   23740    654.28173   -9216.5334   -9143.5473     -2709.57     15842.67    21.865067 
   23750    636.17541   -9214.9525   -9143.9862   -3077.2495    15843.441    21.891725 
   23760    627.89512    -9214.419   -9144.3763    -2873.109    15841.191    21.916591 
   23770    625.54961   -9214.4824   -9144.7014   -2245.1825    15836.117    21.942372 
   23780    613.87766   -9213.4224   -9144.9434   -1577.3109    15828.753    21.968254 
   23790    615.33549   -9213.7218   -9145.0802   -1496.3062    15819.675    21.993145 
   23800     645.7064   -9217.1869   -9145.1574    -1714.395    15808.971     22.02002 
   23810    634.30143   -9215.9828   -9145.2256   -265.09249    15796.593    22.051679 
   23820    605.26041   -9212.7698    -9145.252    2016.9979    15783.874    22.084868 
   23830    633.16107   -9215.8596   -9145.2296    3637.7161    15772.927    22.113442 
   23840    635.83969   -9216.1202   -9145.1913      5205.79    15765.444    22.131933 
   23850    614.66279   -9213.7298   -9145.1632    5472.0079    15762.884    22.138063 
   23860    629.46115   -9215.3514    -9145.134    2883.4231    15765.437    22.135739 
   23870    623.72737   -9214.6583   -9145.0806    -206.2867    15770.871    22.131984 
   23880    604.73026   -9212.4364   -9144.9779    -2627.495    15776.253    22.132508 
   23890    645.52722   -9216.8409   -9144.8314   -4438.7355    15779.141    22.142821 
   23900    644.38179   -9216.5678    -9144.686   -3479.7935    15777.942    22.167997 
   23910    613.45857   -9212.9969   -9144.5647    -1355.472    15773.383    22.207341 
   23920    618.51926   -9213.4137   -9144.4169   -299.31158    15767.303    22.255754 
   23930    631.44321   -9214.6605   -9144.2221   -346.30612     15760.74    22.309614 
   23940    651.43911   -9216.6863   -9144.0173   -197.94337    15753.756    22.369432 
   23950    634.39947   -9214.5814   -9143.8131    848.56979    15746.563    22.433153 
   23960    605.30979   -9211.1142    -9143.591    1675.9465     15740.08     22.48785 
   23970    616.39368   -9212.0915   -9143.3319    1509.2378    15735.068    22.524624 
   23980    633.46758   -9213.7078   -9143.0436    499.57701    15731.375    22.547369 
   23990    647.17609   -9214.9616   -9142.7681   -583.58797    15728.105    22.561833 
   24000    651.16468   -9215.1614    -9142.523   -717.16456    15724.299    22.569573 
   24010    649.85287   -9214.8118   -9142.3198   -85.598452    15719.778    22.570511 
   24020    635.66991   -9213.0559   -9142.1459    602.99995    15715.104    22.570294 
   24030    628.34647   -9212.0586   -9141.9656    220.74641    15710.842    22.581587 
   24040    658.76665   -9215.2405   -9141.7541   -1104.4975     15706.66    22.615252 
   24050    671.80859   -9216.4797   -9141.5384   -1592.7562     15701.41    22.670047 
   24060    650.17489   -9213.8871   -9141.3591   -221.87593    15694.677    22.734063 
   24070     648.3332   -9213.5469   -9141.2243     1969.979    15687.677    22.793772 
   24080     646.3905   -9213.2253   -9141.1195    4312.2025    15682.516    22.839653 
   24090    657.54284   -9214.4172   -9141.0673    5227.8341    15681.382    22.869309 
   24100    663.75629   -9215.1379   -9141.0949    3928.0327    15685.136    22.887868 
   24110    659.79562   -9214.8089   -9141.2077    2125.2534    15692.763    22.902909 
   24120    664.87464   -9215.5589   -9141.3911    792.72476    15702.641    22.922434 
   24130    660.12721   -9215.2757   -9141.6376    275.60405    15713.523    22.950595 
   24140    640.74208   -9213.4132   -9141.9375    12.135874    15724.923    22.984174 
   24150    647.41123   -9214.4934   -9142.2737   -2158.8726    15736.372    23.020115 
   24160    651.47848    -9215.356   -9142.6826   -4738.0807    15745.862    23.057677 
   24170    632.50927    -9213.761   -9143.2037   -6118.7937    15750.967    23.095145 
   24180    632.65461   -9214.4131   -9143.8395   -6959.4195    15750.177    23.131369 
   24190    638.70749   -9215.8381   -9144.5893   -6350.2055    15742.645    23.166016 
   24200    634.89364   -9216.2225   -9145.3992   -3711.4305    15728.937    23.197103 
   24210    644.64433   -9218.1254   -9146.2143   -1278.5502    15711.354    23.225193 
   24220    632.51701   -9217.5216   -9146.9634    845.46019    15692.266    23.256043 
   24230      639.608   -9218.9527   -9147.6035     2478.459    15673.682    23.292434 
   24240    634.68828   -9218.9256   -9148.1252    4038.4328    15657.249    23.327846 
   24250    617.20377   -9217.3645   -9148.5144    5422.5288    15644.511    23.349883 
   24260    619.82406   -9217.9356   -9148.7933     6016.933    15636.798    23.348977 
   24270    621.87118     -9218.36   -9148.9894    5844.4438    15634.759    23.325292 
   24280     620.4036   -9218.3341   -9149.1271    5040.1206    15638.324     23.28891 
   24290     621.2222   -9218.5093    -9149.211     3609.714    15646.784    23.251617 
   24300    625.00036   -9218.9606   -9149.2409    1111.4866    15658.775    23.222115 
   24310    638.68207   -9220.4697   -9149.2238   -1596.4809    15672.045    23.205908 
   24320    639.15855   -9220.4846   -9149.1855   -3383.8311    15684.049    23.203932 
   24330     613.9445   -9217.6295   -9149.1431    -3261.828    15693.092    23.214872 
   24340     621.8134    -9218.451   -9149.0868   -3004.6281    15699.079     23.23442 
   24350    628.61573   -9219.1385   -9149.0155   -2872.2418    15702.208    23.260896 
   24360    607.67035   -9216.7295    -9148.943   -2079.9626    15702.638    23.296149 
   24370    599.98155   -9215.7572   -9148.8283    -1383.402    15701.016    23.343022 
   24380    626.31043   -9218.5132   -9148.6474   -1390.6404    15697.936    23.404033 
   24390    635.20834   -9219.2766   -9148.4182   -1015.5524      15693.5    23.474116 
   24400    627.68015   -9218.1828   -9148.1641     380.4331    15688.105    23.540215 
   24410    629.55147   -9218.1045   -9147.8771    1643.9992    15682.987    23.588811 
   24420    631.27454   -9217.9749   -9147.5553    2469.9519    15679.386    23.617701 
   24430    627.16284   -9217.1581   -9147.1971     2307.295    15678.048    23.634982 
   24440     629.7841   -9217.0601   -9146.8067    2186.9233    15678.943    23.646242 
   24450    631.88946   -9216.8864   -9146.3982    2612.5893    15682.052    23.645701 
   24460    655.56366   -9219.1283   -9145.9992    1526.3734    15687.603    23.624004 
   24470    663.04234   -9219.6109   -9145.6476    117.72443    15694.687    23.581651 
   24480    647.62052    -9217.624   -9145.3809   -298.15617    15702.078    23.528049 
   24490    635.68875   -9216.0961   -9145.1841   -892.47813    15709.226    23.471273 
   24500    632.03037   -9215.5246   -9145.0207   -768.54501    15715.674    23.419101 
   24510    633.63307   -9215.5453   -9144.8625   -391.35379    15721.467      23.3765 
   24520    631.21231   -9215.0971   -9144.6844   -448.79604    15726.891    23.340828 
   24530     630.8578   -9214.8451    -9144.472   -519.59603    15731.967    23.310796 
   24540    629.90407    -9214.465   -9144.1983   -942.28229    15736.572    23.285054 
   24550    638.98355   -9215.1334   -9143.8539    -1744.815    15740.266    23.263988 
   24560      647.947   -9215.7625   -9143.4831   -1994.8659    15742.362    23.253873 
   24570    645.50272   -9215.1549   -9143.1481   -1614.4917    15742.609    23.261368 
   24580    656.60064   -9216.1301   -9142.8853   -1641.5982    15741.239    23.287637 
   24590    645.13612   -9214.6616   -9142.6957   -886.91839    15738.317    23.326352 
   24600    634.10239   -9213.2832   -9142.5481    397.90191    15734.543    23.365543 
   24610    637.30949   -9213.5023   -9142.4095    535.52336    15731.021    23.398443 
   24620    624.76704    -9211.959   -9142.2653   -77.995118    15727.929    23.425846 
   24630    646.19583   -9214.1939   -9142.1097   -1409.1793    15724.684     23.44795 
   24640    669.13039   -9216.6011   -9141.9585   -2020.5177    15720.098    23.469879 
   24650    661.00375   -9215.5755   -9141.8395   -900.32439    15713.652    23.495226 
   24660    661.30194   -9215.5302    -9141.761    3.3623445    15706.258    23.521493 
   24670     661.3594   -9215.4933   -9141.7177    784.38869    15698.791    23.545855 
   24680    657.44381   -9215.0582   -9141.7193    1940.0704    15692.064    23.563301 
   24690    648.50634   -9214.1099   -9141.7681     3298.952     15687.21    23.572233 
   24700    646.79161   -9214.0234   -9141.8729    4626.6654    15685.532    23.579898 
   24710    646.95464   -9214.2164   -9142.0476    4807.5347    15688.255    23.590565 
   24720    654.11573    -9215.276   -9142.3084    2880.7334    15695.501    23.601608 
   24730    667.42057    -9217.144   -9142.6922    42.210981    15705.559    23.612775 
   24740    643.39763   -9214.9973   -9143.2254    -2010.279     15715.86    23.625036 
   24750    621.97399   -9213.2695   -9143.8874    -3576.689    15724.332    23.632897 
   24760    620.94675   -9213.9075   -9144.6399   -4424.2572    15729.449    23.625633 
   24770    622.14927   -9214.8536   -9145.4519   -3497.5763    15730.461    23.598174 
   24780    614.87813   -9214.8245    -9146.234    -1915.613    15728.129     23.55847 
   24790    619.82623   -9216.0821   -9146.9395   -686.13589    15723.871    23.517392 
   24800    610.79777   -9215.6565   -9147.5211    630.75382    15718.928    23.482309 
   24810    636.94411   -9219.0332   -9147.9811    1249.2322    15714.494    23.456231 
   24820    658.32648   -9221.8223    -9148.385    2059.6441    15711.249    23.436069 
   24830    618.83519   -9217.7642   -9148.7322    3919.1977    15710.097    23.413578 
   24840     613.7028   -9217.4544    -9148.995    3716.9266    15712.599    23.381351 
   24850    640.10119   -9220.6029   -9149.1986     1156.049    15718.566    23.342363 
   24860    622.09651   -9218.7575   -9149.3617   -690.87659    15725.805      23.3105 
   24870    615.63235   -9218.1588   -9149.4841   -1454.7977    15732.522    23.300505 
   24880    622.96294   -9219.0648   -9149.5723   -1056.7977    15737.996    23.316696 
   24890    610.21803   -9217.6984   -9149.6277   -621.16799    15742.504    23.352761 
   24900    627.62519   -9219.6619   -9149.6494   -1754.9482    15746.288    23.403978 
   24910    639.05459   -9220.9419   -9149.6544   -2608.4469    15748.416    23.471988 
   24920    616.02122   -9218.3689   -9149.6508   -1989.1142    15748.125    23.552376 
   24930    624.21997   -9219.2474   -9149.6147   -716.53485     15745.93     23.63615 
   24940      623.323   -9219.0539   -9149.5213    1230.5449     15743.09    23.719068 
   24950    614.34107   -9217.9147    -9149.384    2642.2033    15741.405    23.798058 
   24960    616.54483   -9217.9723   -9149.1958    2206.7941     15742.15    23.870647 
   24970    622.57689   -9218.3897   -9148.9403    990.53575    15745.009     23.94022 
   24980    618.25357   -9217.5888   -9148.6217    320.11663    15748.913    24.004859 
   24990    621.94782   -9217.6426   -9148.2634    281.85005    15753.218     24.05382 
   25000    628.58101   -9218.0015   -9147.8823    868.45481     15757.89    24.079783 
Loop time of 12565.9 on 16 procs for 20000 steps with 864 atoms

Performance: 0.138 ns/day, 174.527 hours/ns, 1.592 timesteps/s
96.6% CPU use with 16 MPI tasks x 1 OpenMP threads

MPI task timing breakdown:
Section |  min time  |  avg time  |  max time  |%varavg| %total
---------------------------------------------------------------
Pair    | 2325.3     | 7841.4     | 12341      |4271.3 | 62.40
Bond    | 0.0015941  | 0.0026767  | 0.0081925  |   3.0 |  0.00
Neigh   | 0.1333     | 0.38532    | 0.63453    |  28.1 |  0.00
Comm    | 115.55     | 4125.1     | 9286.1     |5096.6 | 32.83
Output  | 4.3943     | 4.4268     | 4.9006     |   5.8 |  0.04
Modify  | 82.014     | 594.44     | 2992.6     |3792.8 |  4.73
Other   |            | 0.1161     |            |       |  0.00

Nlocal:        54.0000 ave          79 max          21 min
Histogram: 2 2 0 2 0 0 2 2 4 2
Nghost:        579.438 ave         776 max         408 min
Histogram: 1 3 2 0 3 3 1 1 0 2
Neighs:         0.00000 ave           0 max           0 min
Histogram: 16 0 0 0 0 0 0 0 0 0
FullNghs:      3159.00 ave        5695 max         684 min
Histogram: 4 1 1 0 0 2 2 2 2 2

Total # of neighbors = 50544
Ave neighs/atom = 58.500000
Ave special neighs/atom = 0.0000000
Neighbor list builds = 2000
Dangerous builds = 2000
unfix   3
                
Total wall time: 4:26:27
